 vasp.5.4.4.18Apr17-6-g9f103f2a35 (build Aug 19 2019 13:15:05) complex          
  
 executed on             LinuxIFC date 2020.05.13  17:02:42
 running on   48 total cores
 distrk:  each k-point on   48 cores,    1 groups
 distr:  one band on NCORES_PER_BAND=   2 cores,   24 groups


--------------------------------------------------------------------------------------------------------


 INCAR:
 POTCAR:    PAW_PBE I 08Apr2002                   
 POTCAR:    PAW_PBE Pb_d 06Sep2000                
 POTCAR:    PAW_PBE Cs_sv 08Apr2002               

 ----------------------------------------------------------------------------- 
|                                                                             |
|           W    W    AA    RRRRR   N    N  II  N    N   GGGG   !!!           |
|           W    W   A  A   R    R  NN   N  II  NN   N  G    G  !!!           |
|           W    W  A    A  R    R  N N  N  II  N N  N  G       !!!           |
|           W WW W  AAAAAA  RRRRR   N  N N  II  N  N N  G  GGG   !            |
|           WW  WW  A    A  R   R   N   NN  II  N   NN  G    G                |
|           W    W  A    A  R    R  N    N  II  N    N   GGGG   !!!           |
|                                                                             |
|      For optimal performance we recommend to set                            |
|        NCORE= 4 - approx SQRT( number of cores)                             |
|      NCORE specifies how many cores store one orbital (NPAR=cpu/NCORE).     |
|      This setting can  greatly improve the performance of VASP for DFT.     |
|      The default,   NCORE=1            might be grossly inefficient         |
|      on modern multi-core architectures or massively parallel machines.     |
|      Do your own testing !!!!                                               |
|      Unfortunately you need to use the default for GW and RPA calculations. |
|      (for HF NCORE is supported but not extensively tested yet)             |
|                                                                             |
 ----------------------------------------------------------------------------- 

 POTCAR:    PAW_PBE I 08Apr2002                   
   VRHFIN =I : s2p5                                                             
   LEXCH  = PE                                                                  
   EATOM  =   315.8678 eV,   23.2156 Ry                                         
                                                                                
   TITEL  = PAW_PBE I 08Apr2002                                                 
   LULTRA =        F    use ultrasoft PP ?                                      
   IUNSCR =        1    unscreen: 0-lin 1-nonlin 2-no                           
   RPACOR =    2.200    partial core radius                                     
   POMASS =  126.904; ZVAL   =    7.000    mass and valenz                      
   RCORE  =    2.300    outmost cutoff radius                                   
   RWIGS  =    2.810; RWIGS  =    1.487    wigner-seitz radius (au A)           
   ENMAX  =  175.647; ENMIN  =  131.735 eV                                      
   ICORE  =        3    local potential                                         
   LCOR   =        T    correct aug charges                                     
   LPAW   =        T    paw PP                                                  
   EAUG   =  370.139                                                            
   DEXC   =    0.000                                                            
   RMAX   =    2.359    core radius for proj-oper                               
   RAUG   =    1.300    factor for augmentation sphere                          
   RDEP   =    2.392    radius for radial grids                                 
   RDEPT  =    2.170    core radius for aug-charge                              
                                                                                
   Atomic configuration                                                         
   13 entries                                                                   
     n  l   j            E        occ.                                          
     1  0  0.50    -32976.3739   2.0000                                         
     2  0  0.50     -5094.5933   2.0000                                         
     2  1  1.50     -4572.0131   6.0000                                         
     3  0  0.50     -1028.2813   2.0000                                         
     3  1  1.50      -859.0250   6.0000                                         
     3  2  2.50      -605.7620  10.0000                                         
     4  0  0.50      -180.5540   2.0000                                         
     4  1  1.50      -127.5306   6.0000                                         
     4  2  2.50       -50.2720  10.0000                                         
     5  0  0.50       -17.4058   2.0000                                         
     5  1  0.50        -7.0851   5.0000                                         
     5  2  1.50        -7.0750   0.0000                                         
     4  3  2.50        -7.0750   0.0000                                         
   Description                                                                  
     l       E           TYP  RCUT    TYP  RCUT                                 
     0    -17.4058016     23  2.300                                             
     0    -18.7663842     23  2.300                                             
     1     -7.0850686     23  2.300                                             
     1     -4.2150896     23  2.300                                             
     2     -7.0750295     23  2.300                                             
     3     -1.3605826     23  2.300                                             
  local pseudopotential read in
  partial core-charges read in
  partial kinetic energy density read in
  atomic valenz-charges read in
  non local Contribution for L=           0  read in
    real space projection operators read in
  non local Contribution for L=           0  read in
    real space projection operators read in
  non local Contribution for L=           1  read in
    real space projection operators read in
  non local Contribution for L=           1  read in
    real space projection operators read in
  non local Contribution for L=           2  read in
    real space projection operators read in
    PAW grid and wavefunctions read in
 
   number of l-projection  operators is LMAX  =           5
   number of lm-projection operators is LMMAX =          13
 
 POTCAR:    PAW_PBE Pb_d 06Sep2000                
   VRHFIN =Pb:                                                                  
   LEXCH  = PE                                                                  
   EATOM  =  1661.6185 eV,  122.1255 Ry                                         
                                                                                
   TITEL  = PAW_PBE Pb_d 06Sep2000                                              
   LULTRA =        F    use ultrasoft PP ?                                      
   IUNSCR =        1    unscreen: 0-lin 1-nonlin 2-no                           
   RPACOR =    2.200    partial core radius                                     
   POMASS =  207.200; ZVAL   =   14.000    mass and valenz                      
   RCORE  =    2.500    outmost cutoff radius                                   
   RWIGS  =    3.260; RWIGS  =    1.725    wigner-seitz radius (au A)           
   ENMAX  =  237.835; ENMIN  =  178.376 eV                                      
   ICORE  =        3    local potential                                         
   LCOR   =        T    correct aug charges                                     
   LPAW   =        T    paw PP                                                  
   EAUG   =  391.914                                                            
   DEXC   =    0.000                                                            
   RMAX   =    2.565    core radius for proj-oper                               
   RAUG   =    1.300    factor for augmentation sphere                          
   RDEP   =    2.643    radius for radial grids                                 
   RDEPT  =    2.092    core radius for aug-charge                              
                                                                                
   Atomic configuration                                                         
   16 entries                                                                   
     n  l   j            E        occ.                                          
     1  0  0.50    -88091.8466   2.0000                                         
     2  0  0.50    -15753.4197   2.0000                                         
     2  1  1.50    -13508.1797   6.0000                                         
     3  0  0.50     -3781.7194   2.0000                                         
     3  1  1.50     -3138.2529   6.0000                                         
     3  2  2.50     -2483.2977  10.0000                                         
     4  0  0.50      -856.2895   2.0000                                         
     4  1  1.50      -645.4942   6.0000                                         
     4  2  2.50      -401.8768  10.0000                                         
     4  3  3.50      -132.9059  14.0000                                         
     5  0  0.50      -144.0950   2.0000                                         
     5  1  1.50       -85.7879   6.0000                                         
     5  2  2.50       -21.1769  10.0000                                         
     6  0  0.50       -12.0372   2.0000                                         
     6  1  1.50        -3.4971   2.0000                                         
     5  3  2.50        -2.7212   0.0000                                         
   Description                                                                  
     l       E           TYP  RCUT    TYP  RCUT                                 
     2    -21.1768523     23  2.500                                             
     2      1.3605826     23  2.500                                             
     0    -12.0371562     23  2.500                                             
     0     13.6058260     23  2.500                                             
     1     -3.4971339     23  2.500                                             
     1     13.6058260     23  2.500                                             
     3     -1.3605826      7  2.500                                             
  local pseudopotential read in
  partial core-charges read in
  partial kinetic energy density read in
  atomic valenz-charges read in
  non local Contribution for L=           2  read in
    real space projection operators read in
  non local Contribution for L=           2  read in
    real space projection operators read in
  non local Contribution for L=           0  read in
    real space projection operators read in
  non local Contribution for L=           0  read in
    real space projection operators read in
  non local Contribution for L=           1  read in
    real space projection operators read in
  non local Contribution for L=           1  read in
    real space projection operators read in
    PAW grid and wavefunctions read in
 
   number of l-projection  operators is LMAX  =           6
   number of lm-projection operators is LMMAX =          18
 
 POTCAR:    PAW_PBE Cs_sv 08Apr2002               
   VRHFIN =Cs: 5s5p6s                                                           
   LEXCH  = PE                                                                  
   EATOM  =   555.6835 eV,   40.8416 Ry                                         
                                                                                
   TITEL  = PAW_PBE Cs_sv 08Apr2002                                             
   LULTRA =        F    use ultrasoft PP ?                                      
   IUNSCR =        1    unscreen: 0-lin 1-nonlin 2-no                           
   RPACOR =    2.200    partial core radius                                     
   POMASS =  132.900; ZVAL   =    9.000    mass and valenz                      
   RCORE  =    2.500    outmost cutoff radius                                   
   RWIGS  =    2.500; RWIGS  =    1.323    wigner-seitz radius (au A)           
   ENMAX  =  220.318; ENMIN  =  165.238 eV                                      
   RCLOC  =    2.207    cutoff for local pot                                    
   LCOR   =        T    correct aug charges                                     
   LPAW   =        T    paw PP                                                  
   EAUG   =  407.933                                                            
   DEXC   =    0.000                                                            
   RMAX   =    2.554    core radius for proj-oper                               
   RAUG   =    1.300    factor for augmentation sphere                          
   RDEP   =    2.590    radius for radial grids                                 
   RDEPT  =    2.117    core radius for aug-charge                              
                                                                                
   Atomic configuration                                                         
   13 entries                                                                   
     n  l   j            E        occ.                                          
     1  0  0.50    -35790.1377   2.0000                                         
     2  0  0.50     -5613.6201   2.0000                                         
     2  1  1.50     -5035.0101   6.0000                                         
     3  0  0.50     -1167.0767   2.0000                                         
     3  1  1.50      -980.9754   6.0000                                         
     3  2  2.50      -708.0703  10.0000                                         
     4  0  0.50      -220.2386   2.0000                                         
     4  1  1.50      -160.7596   6.0000                                         
     4  2  2.50       -74.2354  10.0000                                         
     5  0  0.50       -26.7287   2.0000                                         
     6  0  0.50        -2.0862   1.0000                                         
     5  1  1.50       -13.5159   6.0000                                         
     5  2  2.50        -0.4136   0.0000                                         
   Description                                                                  
     l       E           TYP  RCUT    TYP  RCUT                                 
     0    -26.7287425     23  1.900                                             
     0     -2.0862306     23  1.900                                             
     1    -13.5158719     23  2.500                                             
     1     -2.7211652     23  2.500                                             
     2     -0.4136171     23  2.500                                             
  local pseudopotential read in
  partial core-charges read in
  partial kinetic energy density read in
  atomic valenz-charges read in
  non local Contribution for L=           0  read in
    real space projection operators read in
  non local Contribution for L=           0  read in
    real space projection operators read in
  non local Contribution for L=           1  read in
    real space projection operators read in
  non local Contribution for L=           1  read in
    real space projection operators read in
  non local Contribution for L=           2  read in
    real space projection operators read in
    PAW grid and wavefunctions read in
 
   number of l-projection  operators is LMAX  =           5
   number of lm-projection operators is LMMAX =          13
 

 ----------------------------------------------------------------------------- 
|                                                                             |
|  ADVICE TO THIS USER RUNNING 'VASP/VAMP'   (HEAR YOUR MASTER'S VOICE ...):  |
|                                                                             |
|      You have a (more or less) 'large supercell' and for larger cells       |
|      it might be more efficient to use real space projection opertators     |
|      So try LREAL= Auto  in the INCAR   file.                               |
|      Mind:          For very  accurate calculation you might also keep the  |
|      reciprocal projection scheme          (i.e. LREAL=.FALSE.)             |
|                                                                             |
 ----------------------------------------------------------------------------- 

  PAW_PBE I 08Apr2002                   :
 energy of atom  1       EATOM= -315.8678
 kinetic energy error for atom=    0.0009 (will be added to EATOM!!)
  PAW_PBE Pb_d 06Sep2000                :
 energy of atom  2       EATOM=-1661.6185
 kinetic energy error for atom=    0.0037 (will be added to EATOM!!)
  PAW_PBE Cs_sv 08Apr2002               :
 energy of atom  3       EATOM= -555.6835
 kinetic energy error for atom=    0.0016 (will be added to EATOM!!)
 
 
 POSCAR: CsPbI3_325K                             
  positions in direct lattice
  velocities in cartesian coordinates
 exchange correlation table for  LEXCH =        8
   RHO(1)=    0.500       N(1)  =     2000
   RHO(2)=  100.500       N(2)  =     4000
 


--------------------------------------------------------------------------------------------------------


 ion  position               nearest neighbor table
   1  0.192  0.306  0.540-  14 3.21  13 3.21
   2  0.808  0.694  0.460-  14 3.21  13 3.21
   3  0.692  0.194  0.460-  13 3.21  14 3.21
   4  0.308  0.806  0.540-  13 3.21  14 3.21
   5  0.808  0.694  0.040-  16 3.21  15 3.21
   6  0.192  0.306  0.960-  16 3.21  15 3.21
   7  0.308  0.806  0.960-  15 3.21  16 3.21
   8  0.692  0.194  0.040-  15 3.21  16 3.21
   9  0.918  0.000  0.750-  15 3.21  13 3.21
  10  0.082  1.000  0.250-  13 3.21  15 3.21
  11  0.418  0.500  0.250-  14 3.21  16 3.21
  12  0.582  0.500  0.750-  16 3.21  14 3.21
  13  0.000  0.000  0.500-   3 3.21   4 3.21  10 3.21   9 3.21   1 3.21   2 3.21
  14  0.500  0.500  0.500-   2 3.21   1 3.21  11 3.21  12 3.21   3 3.21   4 3.21
  15  0.000  0.000  0.000-   8 3.21   7 3.21   9 3.21  10 3.21   6 3.21   5 3.21
  16  0.500  0.500  0.000-   5 3.21   6 3.21  12 3.21  11 3.21   8 3.21   7 3.21
  17  0.978  0.424  0.250-
  18  0.022  0.576  0.750-
  19  0.478  0.076  0.750-
  20  0.522  0.924  0.250-
 
  LATTYP: Found a simple orthorhombic cell.
 ALAT       =     8.6751003265
 B/A-ratio  =     1.0171640703
 C/A-ratio  =     1.4438795264
  
  Lattice vectors:
  
 A1 = (   8.6751003265,   0.0000000000,   0.0000000000)
 A2 = (   0.0000000000,   8.8240003586,   0.0000000000)
 A3 = (   0.0000000000,   0.0000000000,  12.5257997513)


Analysis of symmetry for initial positions (statically):
=====================================================================
 Subroutine PRICEL returns:
 Original cell was already a primitive cell.
 

 Routine SETGRP: Setting up the symmetry group for a 
 simple orthorhombic supercell.


 Subroutine GETGRP returns: Found  8 space group operations
 (whereof  2 operations were pure point group operations)
 out of a pool of  8 trial point group operations.


The static configuration has the point symmetry S_2 .
 The point group associated with its full space group is D_2h.


Analysis of symmetry for dynamics (positions and initial velocities):
=====================================================================
 Subroutine PRICEL returns:
 Original cell was already a primitive cell.
 

 Routine SETGRP: Setting up the symmetry group for a 
 simple orthorhombic supercell.


 Subroutine GETGRP returns: Found  8 space group operations
 (whereof  2 operations were pure point group operations)
 out of a pool of  8 trial point group operations.


The dynamic configuration has the point symmetry S_2 .
 The point group associated with its full space group is D_2h.


 Subroutine INISYM returns: Found  8 space group operations
 (whereof  2 operations are pure point group operations),
 and found     1 'primitive' translations

 
 
 KPOINTS: K-Mesh Generated with KP-Resolved Value 

Automatic generation of k-mesh.
Space group operators:
 irot       det(A)        alpha          n_x          n_y          n_z        tau_x        tau_y        tau_z
    1     1.000000     0.000000     1.000000     0.000000     0.000000     0.000000     0.000000     0.000000
    2    -1.000000     0.000000     1.000000     0.000000     0.000000     0.000000     0.000000     0.000000
    3     1.000000   180.000000     0.000000     0.000000     1.000000     0.000000     0.000000     0.500000
    4    -1.000000   180.000000     0.000000     0.000000     1.000000     0.000000     0.000000     0.500000
    5     1.000000   180.000000     0.000000     1.000000     0.000000     0.500000     0.500000     0.500000
    6    -1.000000   180.000000     0.000000     1.000000     0.000000     0.500000     0.500000     0.500000
    7     1.000000   179.999999     1.000000     0.000000     0.000000     0.500000     0.500000     0.000000
    8    -1.000000   179.999999     1.000000     0.000000     0.000000     0.500000     0.500000     0.000000
 
 Subroutine IBZKPT returns following result:
 ===========================================
 
 Found    100 irreducible k-points:
 
 Following reciprocal coordinates:
            Coordinates               Weight
  0.000000  0.000000  0.000000      1.000000
  0.125000  0.000000  0.000000      2.000000
  0.250000  0.000000  0.000000      2.000000
  0.375000  0.000000  0.000000      2.000000
  0.500000  0.000000  0.000000      1.000000
  0.000000  0.125000  0.000000      2.000000
  0.125000  0.125000  0.000000      4.000000
  0.250000  0.125000  0.000000      4.000000
  0.375000  0.125000  0.000000      4.000000
  0.500000  0.125000  0.000000      2.000000
  0.000000  0.250000  0.000000      2.000000
  0.125000  0.250000  0.000000      4.000000
  0.250000  0.250000  0.000000      4.000000
  0.375000  0.250000  0.000000      4.000000
  0.500000  0.250000  0.000000      2.000000
  0.000000  0.375000  0.000000      2.000000
  0.125000  0.375000  0.000000      4.000000
  0.250000  0.375000  0.000000      4.000000
  0.375000  0.375000  0.000000      4.000000
  0.500000  0.375000  0.000000      2.000000
  0.000000  0.500000  0.000000      1.000000
  0.125000  0.500000  0.000000      2.000000
  0.250000  0.500000  0.000000      2.000000
  0.375000  0.500000  0.000000      2.000000
  0.500000  0.500000  0.000000      1.000000
  0.000000  0.000000  0.166667      2.000000
  0.125000  0.000000  0.166667      4.000000
  0.250000  0.000000  0.166667      4.000000
  0.375000  0.000000  0.166667      4.000000
  0.500000  0.000000  0.166667      2.000000
  0.000000  0.125000  0.166667      4.000000
  0.125000  0.125000  0.166667      8.000000
  0.250000  0.125000  0.166667      8.000000
  0.375000  0.125000  0.166667      8.000000
  0.500000  0.125000  0.166667      4.000000
  0.000000  0.250000  0.166667      4.000000
  0.125000  0.250000  0.166667      8.000000
  0.250000  0.250000  0.166667      8.000000
  0.375000  0.250000  0.166667      8.000000
  0.500000  0.250000  0.166667      4.000000
  0.000000  0.375000  0.166667      4.000000
  0.125000  0.375000  0.166667      8.000000
  0.250000  0.375000  0.166667      8.000000
  0.375000  0.375000  0.166667      8.000000
  0.500000  0.375000  0.166667      4.000000
  0.000000  0.500000  0.166667      2.000000
  0.125000  0.500000  0.166667      4.000000
  0.250000  0.500000  0.166667      4.000000
  0.375000  0.500000  0.166667      4.000000
  0.500000  0.500000  0.166667      2.000000
  0.000000  0.000000  0.333333      2.000000
  0.125000  0.000000  0.333333      4.000000
  0.250000  0.000000  0.333333      4.000000
  0.375000  0.000000  0.333333      4.000000
  0.500000  0.000000  0.333333      2.000000
  0.000000  0.125000  0.333333      4.000000
  0.125000  0.125000  0.333333      8.000000
  0.250000  0.125000  0.333333      8.000000
  0.375000  0.125000  0.333333      8.000000
  0.500000  0.125000  0.333333      4.000000
  0.000000  0.250000  0.333333      4.000000
  0.125000  0.250000  0.333333      8.000000
  0.250000  0.250000  0.333333      8.000000
  0.375000  0.250000  0.333333      8.000000
  0.500000  0.250000  0.333333      4.000000
  0.000000  0.375000  0.333333      4.000000
  0.125000  0.375000  0.333333      8.000000
  0.250000  0.375000  0.333333      8.000000
  0.375000  0.375000  0.333333      8.000000
  0.500000  0.375000  0.333333      4.000000
  0.000000  0.500000  0.333333      2.000000
  0.125000  0.500000  0.333333      4.000000
  0.250000  0.500000  0.333333      4.000000
  0.375000  0.500000  0.333333      4.000000
  0.500000  0.500000  0.333333      2.000000
  0.000000  0.000000  0.500000      1.000000
  0.125000  0.000000  0.500000      2.000000
  0.250000  0.000000  0.500000      2.000000
  0.375000  0.000000  0.500000      2.000000
  0.500000  0.000000  0.500000      1.000000
  0.000000  0.125000  0.500000      2.000000
  0.125000  0.125000  0.500000      4.000000
  0.250000  0.125000  0.500000      4.000000
  0.375000  0.125000  0.500000      4.000000
  0.500000  0.125000  0.500000      2.000000
  0.000000  0.250000  0.500000      2.000000
  0.125000  0.250000  0.500000      4.000000
  0.250000  0.250000  0.500000      4.000000
  0.375000  0.250000  0.500000      4.000000
  0.500000  0.250000  0.500000      2.000000
  0.000000  0.375000  0.500000      2.000000
  0.125000  0.375000  0.500000      4.000000
  0.250000  0.375000  0.500000      4.000000
  0.375000  0.375000  0.500000      4.000000
  0.500000  0.375000  0.500000      2.000000
  0.000000  0.500000  0.500000      1.000000
  0.125000  0.500000  0.500000      2.000000
  0.250000  0.500000  0.500000      2.000000
  0.375000  0.500000  0.500000      2.000000
  0.500000  0.500000  0.500000      1.000000
 
 Following cartesian coordinates:
            Coordinates               Weight
  0.000000  0.000000  0.000000      1.000000
  0.014409  0.000000  0.000000      2.000000
  0.028818  0.000000  0.000000      2.000000
  0.043227  0.000000  0.000000      2.000000
  0.057636  0.000000  0.000000      1.000000
  0.000000  0.014166  0.000000      2.000000
  0.014409  0.014166  0.000000      4.000000
  0.028818  0.014166  0.000000      4.000000
  0.043227  0.014166  0.000000      4.000000
  0.057636  0.014166  0.000000      2.000000
  0.000000  0.028332  0.000000      2.000000
  0.014409  0.028332  0.000000      4.000000
  0.028818  0.028332  0.000000      4.000000
  0.043227  0.028332  0.000000      4.000000
  0.057636  0.028332  0.000000      2.000000
  0.000000  0.042498  0.000000      2.000000
  0.014409  0.042498  0.000000      4.000000
  0.028818  0.042498  0.000000      4.000000
  0.043227  0.042498  0.000000      4.000000
  0.057636  0.042498  0.000000      2.000000
  0.000000  0.056664  0.000000      1.000000
  0.014409  0.056664  0.000000      2.000000
  0.028818  0.056664  0.000000      2.000000
  0.043227  0.056664  0.000000      2.000000
  0.057636  0.056664  0.000000      1.000000
  0.000000  0.000000  0.013306      2.000000
  0.014409  0.000000  0.013306      4.000000
  0.028818  0.000000  0.013306      4.000000
  0.043227  0.000000  0.013306      4.000000
  0.057636  0.000000  0.013306      2.000000
  0.000000  0.014166  0.013306      4.000000
  0.014409  0.014166  0.013306      8.000000
  0.028818  0.014166  0.013306      8.000000
  0.043227  0.014166  0.013306      8.000000
  0.057636  0.014166  0.013306      4.000000
  0.000000  0.028332  0.013306      4.000000
  0.014409  0.028332  0.013306      8.000000
  0.028818  0.028332  0.013306      8.000000
  0.043227  0.028332  0.013306      8.000000
  0.057636  0.028332  0.013306      4.000000
  0.000000  0.042498  0.013306      4.000000
  0.014409  0.042498  0.013306      8.000000
  0.028818  0.042498  0.013306      8.000000
  0.043227  0.042498  0.013306      8.000000
  0.057636  0.042498  0.013306      4.000000
  0.000000  0.056664  0.013306      2.000000
  0.014409  0.056664  0.013306      4.000000
  0.028818  0.056664  0.013306      4.000000
  0.043227  0.056664  0.013306      4.000000
  0.057636  0.056664  0.013306      2.000000
  0.000000  0.000000  0.026612      2.000000
  0.014409  0.000000  0.026612      4.000000
  0.028818  0.000000  0.026612      4.000000
  0.043227  0.000000  0.026612      4.000000
  0.057636  0.000000  0.026612      2.000000
  0.000000  0.014166  0.026612      4.000000
  0.014409  0.014166  0.026612      8.000000
  0.028818  0.014166  0.026612      8.000000
  0.043227  0.014166  0.026612      8.000000
  0.057636  0.014166  0.026612      4.000000
  0.000000  0.028332  0.026612      4.000000
  0.014409  0.028332  0.026612      8.000000
  0.028818  0.028332  0.026612      8.000000
  0.043227  0.028332  0.026612      8.000000
  0.057636  0.028332  0.026612      4.000000
  0.000000  0.042498  0.026612      4.000000
  0.014409  0.042498  0.026612      8.000000
  0.028818  0.042498  0.026612      8.000000
  0.043227  0.042498  0.026612      8.000000
  0.057636  0.042498  0.026612      4.000000
  0.000000  0.056664  0.026612      2.000000
  0.014409  0.056664  0.026612      4.000000
  0.028818  0.056664  0.026612      4.000000
  0.043227  0.056664  0.026612      4.000000
  0.057636  0.056664  0.026612      2.000000
  0.000000  0.000000  0.039918      1.000000
  0.014409  0.000000  0.039918      2.000000
  0.028818  0.000000  0.039918      2.000000
  0.043227  0.000000  0.039918      2.000000
  0.057636  0.000000  0.039918      1.000000
  0.000000  0.014166  0.039918      2.000000
  0.014409  0.014166  0.039918      4.000000
  0.028818  0.014166  0.039918      4.000000
  0.043227  0.014166  0.039918      4.000000
  0.057636  0.014166  0.039918      2.000000
  0.000000  0.028332  0.039918      2.000000
  0.014409  0.028332  0.039918      4.000000
  0.028818  0.028332  0.039918      4.000000
  0.043227  0.028332  0.039918      4.000000
  0.057636  0.028332  0.039918      2.000000
  0.000000  0.042498  0.039918      2.000000
  0.014409  0.042498  0.039918      4.000000
  0.028818  0.042498  0.039918      4.000000
  0.043227  0.042498  0.039918      4.000000
  0.057636  0.042498  0.039918      2.000000
  0.000000  0.056664  0.039918      1.000000
  0.014409  0.056664  0.039918      2.000000
  0.028818  0.056664  0.039918      2.000000
  0.043227  0.056664  0.039918      2.000000
  0.057636  0.056664  0.039918      1.000000
 


--------------------------------------------------------------------------------------------------------




 Dimension of arrays:
   k-points           NKPTS =    100   k-points in BZ     NKDIM =    100   number of bands    NBANDS=    120
   number of dos      NEDOS =   2000   number of ions     NIONS =     20
   non local maximal  LDIM  =      6   non local SUM 2l+1 LMDIM =     18
   total plane-waves  NPLWV = 470400
   max r-space proj   IRMAX =      1   max aug-charges    IRDMAX=  28575
   dimension x,y,z NGX =    70 NGY =   70 NGZ =   96
   dimension x,y,z NGXF=   140 NGYF=  140 NGZF=  192
   support grid    NGXF=   140 NGYF=  140 NGZF=  192
   ions per type =              12   4   4
   NGX,Y,Z   is equivalent  to a cutoff of  13.41, 13.19, 12.74 a.u.
   NGXF,Y,Z  is equivalent  to a cutoff of  26.83, 26.38, 25.48 a.u.

 SYSTEM =  diamond                                 
 POSCAR =  CsPbI3_325K                             

 Startparameter for this run:
   NWRITE =      2    write-flag & timer
   PREC   = accura    normal or accurate (medium, high low for compatibility)
   ISTART =      0    job   : 0-new  1-cont  2-samecut
   ICHARG =      2    charge: 1-file 2-atom 10-const
   ISPIN  =      1    spin polarized calculation?
   LNONCOLLINEAR =      F non collinear calculations
   LSORBIT =      F    spin-orbit coupling
   INIWAV =      1    electr: 0-lowe 1-rand  2-diag
   LASPH  =      F    aspherical Exc in radial PAW
   METAGGA=      F    non-selfconsistent MetaGGA calc.

 Electronic Relaxation 1
   ENCUT  =  520.0 eV  38.22 Ry    6.18 a.u.  16.13 16.41 23.29*2*pi/ulx,y,z
   ENINI  =  520.0     initial cutoff
   ENAUG  =  407.9 eV  augmentation charge cutoff
   NELM   =     60;   NELMIN=  2; NELMDL= -5     # of ELM steps 
   EDIFF  = 0.1E-06   stopping-criterion for ELM
   LREAL  =      F    real-space projection
   NLSPLINE    = F    spline interpolate recip. space projectors
   LCOMPAT=      F    compatible to vasp.4.4
   GGA_COMPAT  = T    GGA compatible to vasp.4.4-vasp.4.6
   LMAXPAW     = -100 max onsite density
   LMAXMIX     =    2 max onsite mixed and CHGCAR
   VOSKOWN=      0    Vosko Wilk Nusair interpolation
   ROPT   =    0.00000   0.00000   0.00000
 Ionic relaxation
   EDIFFG = -.1E-02   stopping-criterion for IOM
   NSW    =    300    number of steps for IOM
   NBLOCK =      1;   KBLOCK =    300    inner block; outer block 
   IBRION =      2    ionic relax: 0-MD 1-quasi-New 2-CG
   NFREE  =      1    steps in history (QN), initial steepest desc. (CG)
   ISIF   =      2    stress and relaxation
   IWAVPR =     11    prediction:  0-non 1-charg 2-wave 3-comb
   ISYM   =      2    0-nonsym 1-usesym 2-fastsym
   LCORR  =      T    Harris-Foulkes like correction to forces

   POTIM  = 0.1000    time-step for ionic-motion
   TEIN   =    0.0    initial temperature
   TEBEG  =    0.0;   TEEND  =   0.0 temperature during run
   SMASS  =  -3.00    Nose mass-parameter (am)
   estimated Nose-frequenzy (Omega)   =  0.10E-29 period in steps =****** mass=  -0.172E-26a.u.
   SCALEE = 1.0000    scale energy and forces
   NPACO  =    256;   APACO  = 16.0  distance and # of slots for P.C.
   PSTRESS=    0.0 pullay stress

  Mass of Ions in am
   POMASS = 126.90207.20132.90
  Ionic Valenz
   ZVAL   =   7.00 14.00  9.00
  Atomic Wigner-Seitz radii
   RWIGS  =  -1.00 -1.00 -1.00
  virtual crystal weights 
   VCA    =   1.00  1.00  1.00
   NELECT =     176.0000    total number of electrons
   NUPDOWN=      -1.0000    fix difference up-down

 DOS related values:
   EMIN   =  10.00;   EMAX   =-10.00  energy-range for DOS
   EFERMI =   0.00
   ISMEAR =     0;   SIGMA  =   0.20  broadening in eV -4-tet -1-fermi 0-gaus

 Electronic relaxation 2 (details)
   IALGO  =     38    algorithm
   LDIAG  =      T    sub-space diagonalisation (order eigenvalues)
   LSUBROT=      F    optimize rotation matrix (better conditioning)
   TURBO    =      0    0=normal 1=particle mesh
   IRESTART =      0    0=no restart 2=restart with 2 vectors
   NREBOOT  =      0    no. of reboots
   NMIN     =      0    reboot dimension
   EREF     =   0.00    reference energy to select bands
   IMIX   =      4    mixing-type and parameters
     AMIX     =   0.40;   BMIX     =  1.00
     AMIX_MAG =   1.60;   BMIX_MAG =  1.00
     AMIN     =   0.10
     WC   =   100.;   INIMIX=   1;  MIXPRE=   1;  MAXMIX= -45

 Intra band minimization:
   WEIMIN = 0.0010     energy-eigenvalue tresh-hold
   EBREAK =  0.21E-09  absolut break condition
   DEPER  =   0.30     relativ break condition  

   TIME   =   0.40     timestep for ELM

  volume/ion in A,a.u.               =      47.94       323.53
  Fermi-wavevector in a.u.,A,eV,Ry     =   0.930388  1.758178 11.777489  0.865621
  Thomas-Fermi vector in A             =   2.056771
 
 Write flags
   LWAVE        =      T    write WAVECAR
   LDOWNSAMPLE  =      F    k-point downsampling of WAVECAR
   LCHARG       =      T    write CHGCAR
   LVTOT        =      F    write LOCPOT, total local potential
   LVHAR        =      F    write LOCPOT, Hartree potential only
   LELF         =      F    write electronic localiz. function (ELF)
   LORBIT       =      0    0 simple, 1 ext, 2 COOP (PROOUT), +10 PAW based schemes


 Dipole corrections
   LMONO  =      F    monopole corrections only (constant potential shift)
   LDIPOL =      F    correct potential (dipole corrections)
   IDIPOL =      0    1-x, 2-y, 3-z, 4-all directions 
   EPSILON=  1.0000000 bulk dielectric constant

 Exchange correlation treatment:
   GGA     =    --    GGA type
   LEXCH   =     8    internal setting for exchange type
   VOSKOWN=      0    Vosko Wilk Nusair interpolation
   LHFCALC =     F    Hartree Fock is set to
   LHFONE  =     F    Hartree Fock one center treatment
   AEXX    =    0.0000 exact exchange contribution

 Linear response parameters
   LEPSILON=     F    determine dielectric tensor
   LRPA    =     F    only Hartree local field effects (RPA)
   LNABLA  =     F    use nabla operator in PAW spheres
   LVEL    =     F    velocity operator in full k-point grid
   LINTERFAST=   F  fast interpolation
   KINTER  =     0    interpolate to denser k-point grid
   CSHIFT  =0.1000    complex shift for real part using Kramers Kronig
   OMEGAMAX=  -1.0    maximum frequency
   DEG_THRESHOLD= 0.2000000E-02 threshold for treating states as degnerate
   RTIME   =   -0.100 relaxation time in fs
  (WPLASMAI=    0.000 imaginary part of plasma frequency in eV, 0.658/RTIME)
   DFIELD  = 0.0000000 0.0000000 0.0000000 field for delta impulse in time
 
 Orbital magnetization related:
   ORBITALMAG=     F  switch on orbital magnetization
   LCHIMAG   =     F  perturbation theory with respect to B field
   DQ        =  0.001000  dq finite difference perturbation B field
   LLRAUG    =     F  two centre corrections for induced B field



--------------------------------------------------------------------------------------------------------


 conjugate gradient relaxation of ions
 charge density and potential will be updated during run
 non-spin polarized calculation
 Variant of blocked Davidson
 Davidson routine will perform the subspace rotation
 perform sub-space diagonalisation
    after iterative eigenvector-optimisation
 modified Broyden-mixing scheme, WC =      100.0
 initial mixing is a Kerker type mixing with AMIX =  0.4000 and BMIX =      1.0000
 Hartree-type preconditioning will be used
 using additional bands           32
 reciprocal scheme for non local part
 use partial core corrections
 calculate Harris-corrections to forces 
   (improved forces if not selfconsistent)
 use gradient corrections 
 use of overlap-Matrix (Vanderbilt PP)
 Gauss-broadening in eV      SIGMA  =   0.20


--------------------------------------------------------------------------------------------------------


  energy-cutoff  :      520.00
  volume of cell :      958.84
      direct lattice vectors                 reciprocal lattice vectors
     8.675100327  0.000000000  0.000000000     0.115272442  0.000000000  0.000000000
     0.000000000  8.824000359  0.000000000     0.000000000  0.113327285  0.000000000
     0.000000000  0.000000000 12.525799751     0.000000000  0.000000000  0.079835222

  length of vectors
     8.675100327  8.824000359 12.525799751     0.115272442  0.113327285  0.079835222


 
 k-points in units of 2pi/SCALE and weight: K-Mesh Generated with KP-Resolved Value 
   0.00000000  0.00000000  0.00000000       0.003
   0.01440906  0.00000000  0.00000000       0.005
   0.02881811  0.00000000  0.00000000       0.005
   0.04322717  0.00000000  0.00000000       0.005
   0.05763622  0.00000000  0.00000000       0.003
   0.00000000  0.01416591  0.00000000       0.005
   0.01440906  0.01416591  0.00000000       0.010
   0.02881811  0.01416591  0.00000000       0.010
   0.04322717  0.01416591  0.00000000       0.010
   0.05763622  0.01416591  0.00000000       0.005
   0.00000000  0.02833182  0.00000000       0.005
   0.01440906  0.02833182  0.00000000       0.010
   0.02881811  0.02833182  0.00000000       0.010
   0.04322717  0.02833182  0.00000000       0.010
   0.05763622  0.02833182  0.00000000       0.005
   0.00000000  0.04249773  0.00000000       0.005
   0.01440906  0.04249773  0.00000000       0.010
   0.02881811  0.04249773  0.00000000       0.010
   0.04322717  0.04249773  0.00000000       0.010
   0.05763622  0.04249773  0.00000000       0.005
   0.00000000  0.05666364  0.00000000       0.003
   0.01440906  0.05666364  0.00000000       0.005
   0.02881811  0.05666364  0.00000000       0.005
   0.04322717  0.05666364  0.00000000       0.005
   0.05763622  0.05666364  0.00000000       0.003
   0.00000000  0.00000000  0.01330587       0.005
   0.01440906  0.00000000  0.01330587       0.010
   0.02881811  0.00000000  0.01330587       0.010
   0.04322717  0.00000000  0.01330587       0.010
   0.05763622  0.00000000  0.01330587       0.005
   0.00000000  0.01416591  0.01330587       0.010
   0.01440906  0.01416591  0.01330587       0.021
   0.02881811  0.01416591  0.01330587       0.021
   0.04322717  0.01416591  0.01330587       0.021
   0.05763622  0.01416591  0.01330587       0.010
   0.00000000  0.02833182  0.01330587       0.010
   0.01440906  0.02833182  0.01330587       0.021
   0.02881811  0.02833182  0.01330587       0.021
   0.04322717  0.02833182  0.01330587       0.021
   0.05763622  0.02833182  0.01330587       0.010
   0.00000000  0.04249773  0.01330587       0.010
   0.01440906  0.04249773  0.01330587       0.021
   0.02881811  0.04249773  0.01330587       0.021
   0.04322717  0.04249773  0.01330587       0.021
   0.05763622  0.04249773  0.01330587       0.010
   0.00000000  0.05666364  0.01330587       0.005
   0.01440906  0.05666364  0.01330587       0.010
   0.02881811  0.05666364  0.01330587       0.010
   0.04322717  0.05666364  0.01330587       0.010
   0.05763622  0.05666364  0.01330587       0.005
   0.00000000  0.00000000  0.02661174       0.005
   0.01440906  0.00000000  0.02661174       0.010
   0.02881811  0.00000000  0.02661174       0.010
   0.04322717  0.00000000  0.02661174       0.010
   0.05763622  0.00000000  0.02661174       0.005
   0.00000000  0.01416591  0.02661174       0.010
   0.01440906  0.01416591  0.02661174       0.021
   0.02881811  0.01416591  0.02661174       0.021
   0.04322717  0.01416591  0.02661174       0.021
   0.05763622  0.01416591  0.02661174       0.010
   0.00000000  0.02833182  0.02661174       0.010
   0.01440906  0.02833182  0.02661174       0.021
   0.02881811  0.02833182  0.02661174       0.021
   0.04322717  0.02833182  0.02661174       0.021
   0.05763622  0.02833182  0.02661174       0.010
   0.00000000  0.04249773  0.02661174       0.010
   0.01440906  0.04249773  0.02661174       0.021
   0.02881811  0.04249773  0.02661174       0.021
   0.04322717  0.04249773  0.02661174       0.021
   0.05763622  0.04249773  0.02661174       0.010
   0.00000000  0.05666364  0.02661174       0.005
   0.01440906  0.05666364  0.02661174       0.010
   0.02881811  0.05666364  0.02661174       0.010
   0.04322717  0.05666364  0.02661174       0.010
   0.05763622  0.05666364  0.02661174       0.005
   0.00000000  0.00000000  0.03991761       0.003
   0.01440906  0.00000000  0.03991761       0.005
   0.02881811  0.00000000  0.03991761       0.005
   0.04322717  0.00000000  0.03991761       0.005
   0.05763622  0.00000000  0.03991761       0.003
   0.00000000  0.01416591  0.03991761       0.005
   0.01440906  0.01416591  0.03991761       0.010
   0.02881811  0.01416591  0.03991761       0.010
   0.04322717  0.01416591  0.03991761       0.010
   0.05763622  0.01416591  0.03991761       0.005
   0.00000000  0.02833182  0.03991761       0.005
   0.01440906  0.02833182  0.03991761       0.010
   0.02881811  0.02833182  0.03991761       0.010
   0.04322717  0.02833182  0.03991761       0.010
   0.05763622  0.02833182  0.03991761       0.005
   0.00000000  0.04249773  0.03991761       0.005
   0.01440906  0.04249773  0.03991761       0.010
   0.02881811  0.04249773  0.03991761       0.010
   0.04322717  0.04249773  0.03991761       0.010
   0.05763622  0.04249773  0.03991761       0.005
   0.00000000  0.05666364  0.03991761       0.003
   0.01440906  0.05666364  0.03991761       0.005
   0.02881811  0.05666364  0.03991761       0.005
   0.04322717  0.05666364  0.03991761       0.005
   0.05763622  0.05666364  0.03991761       0.003
 
 k-points in reciprocal lattice and weights: K-Mesh Generated with KP-Resolved Value 
   0.00000000  0.00000000  0.00000000       0.003
   0.12500000  0.00000000  0.00000000       0.005
   0.25000000  0.00000000  0.00000000       0.005
   0.37500000  0.00000000  0.00000000       0.005
   0.50000000  0.00000000  0.00000000       0.003
   0.00000000  0.12500000  0.00000000       0.005
   0.12500000  0.12500000  0.00000000       0.010
   0.25000000  0.12500000  0.00000000       0.010
   0.37500000  0.12500000  0.00000000       0.010
   0.50000000  0.12500000  0.00000000       0.005
   0.00000000  0.25000000  0.00000000       0.005
   0.12500000  0.25000000  0.00000000       0.010
   0.25000000  0.25000000  0.00000000       0.010
   0.37500000  0.25000000  0.00000000       0.010
   0.50000000  0.25000000  0.00000000       0.005
   0.00000000  0.37500000  0.00000000       0.005
   0.12500000  0.37500000  0.00000000       0.010
   0.25000000  0.37500000  0.00000000       0.010
   0.37500000  0.37500000  0.00000000       0.010
   0.50000000  0.37500000  0.00000000       0.005
   0.00000000  0.50000000  0.00000000       0.003
   0.12500000  0.50000000  0.00000000       0.005
   0.25000000  0.50000000  0.00000000       0.005
   0.37500000  0.50000000  0.00000000       0.005
   0.50000000  0.50000000  0.00000000       0.003
   0.00000000  0.00000000  0.16666667       0.005
   0.12500000  0.00000000  0.16666667       0.010
   0.25000000  0.00000000  0.16666667       0.010
   0.37500000  0.00000000  0.16666667       0.010
   0.50000000  0.00000000  0.16666667       0.005
   0.00000000  0.12500000  0.16666667       0.010
   0.12500000  0.12500000  0.16666667       0.021
   0.25000000  0.12500000  0.16666667       0.021
   0.37500000  0.12500000  0.16666667       0.021
   0.50000000  0.12500000  0.16666667       0.010
   0.00000000  0.25000000  0.16666667       0.010
   0.12500000  0.25000000  0.16666667       0.021
   0.25000000  0.25000000  0.16666667       0.021
   0.37500000  0.25000000  0.16666667       0.021
   0.50000000  0.25000000  0.16666667       0.010
   0.00000000  0.37500000  0.16666667       0.010
   0.12500000  0.37500000  0.16666667       0.021
   0.25000000  0.37500000  0.16666667       0.021
   0.37500000  0.37500000  0.16666667       0.021
   0.50000000  0.37500000  0.16666667       0.010
   0.00000000  0.50000000  0.16666667       0.005
   0.12500000  0.50000000  0.16666667       0.010
   0.25000000  0.50000000  0.16666667       0.010
   0.37500000  0.50000000  0.16666667       0.010
   0.50000000  0.50000000  0.16666667       0.005
   0.00000000  0.00000000  0.33333333       0.005
   0.12500000  0.00000000  0.33333333       0.010
   0.25000000  0.00000000  0.33333333       0.010
   0.37500000  0.00000000  0.33333333       0.010
   0.50000000  0.00000000  0.33333333       0.005
   0.00000000  0.12500000  0.33333333       0.010
   0.12500000  0.12500000  0.33333333       0.021
   0.25000000  0.12500000  0.33333333       0.021
   0.37500000  0.12500000  0.33333333       0.021
   0.50000000  0.12500000  0.33333333       0.010
   0.00000000  0.25000000  0.33333333       0.010
   0.12500000  0.25000000  0.33333333       0.021
   0.25000000  0.25000000  0.33333333       0.021
   0.37500000  0.25000000  0.33333333       0.021
   0.50000000  0.25000000  0.33333333       0.010
   0.00000000  0.37500000  0.33333333       0.010
   0.12500000  0.37500000  0.33333333       0.021
   0.25000000  0.37500000  0.33333333       0.021
   0.37500000  0.37500000  0.33333333       0.021
   0.50000000  0.37500000  0.33333333       0.010
   0.00000000  0.50000000  0.33333333       0.005
   0.12500000  0.50000000  0.33333333       0.010
   0.25000000  0.50000000  0.33333333       0.010
   0.37500000  0.50000000  0.33333333       0.010
   0.50000000  0.50000000  0.33333333       0.005
   0.00000000  0.00000000  0.50000000       0.003
   0.12500000  0.00000000  0.50000000       0.005
   0.25000000  0.00000000  0.50000000       0.005
   0.37500000  0.00000000  0.50000000       0.005
   0.50000000  0.00000000  0.50000000       0.003
   0.00000000  0.12500000  0.50000000       0.005
   0.12500000  0.12500000  0.50000000       0.010
   0.25000000  0.12500000  0.50000000       0.010
   0.37500000  0.12500000  0.50000000       0.010
   0.50000000  0.12500000  0.50000000       0.005
   0.00000000  0.25000000  0.50000000       0.005
   0.12500000  0.25000000  0.50000000       0.010
   0.25000000  0.25000000  0.50000000       0.010
   0.37500000  0.25000000  0.50000000       0.010
   0.50000000  0.25000000  0.50000000       0.005
   0.00000000  0.37500000  0.50000000       0.005
   0.12500000  0.37500000  0.50000000       0.010
   0.25000000  0.37500000  0.50000000       0.010
   0.37500000  0.37500000  0.50000000       0.010
   0.50000000  0.37500000  0.50000000       0.005
   0.00000000  0.50000000  0.50000000       0.003
   0.12500000  0.50000000  0.50000000       0.005
   0.25000000  0.50000000  0.50000000       0.005
   0.37500000  0.50000000  0.50000000       0.005
   0.50000000  0.50000000  0.50000000       0.003
 
 position of ions in fractional coordinates (direct lattice) 
   0.19227051  0.30587406  0.54028163
   0.80772943  0.69412589  0.45971837
   0.69227057  0.19412594  0.45971837
   0.30772949  0.80587411  0.54028163
   0.80772943  0.69412589  0.04028164
   0.19227051  0.30587406  0.95971837
   0.30772949  0.80587411  0.95971837
   0.69227057  0.19412594  0.04028164
   0.91757977  0.00007447  0.75000002
   0.08242017  0.99992553  0.25000000
   0.41757982  0.49992553  0.25000000
   0.58242018  0.50007447  0.75000002
   0.00000000  0.00000000  0.50000000
   0.50000000  0.50000000  0.50000000
   0.00000000  0.00000000  0.00000000
   0.50000000  0.50000000  0.00000000
   0.97805666  0.42438825  0.25000000
   0.02194334  0.57561175  0.75000002
   0.47805666  0.07561174  0.75000002
   0.52194334  0.92438825  0.25000000
 
 position of ions in cartesian coordinates  (Angst):
   1.66796599  2.69903280  6.76745953
   7.00713386  6.12496708  5.75834022
   6.00551663  1.71296738  5.75834022
   2.66958417  7.11103345  6.76745953
   7.00713386  6.12496708  0.50455974
   1.66796599  2.69903280 12.02124010
   2.66958417  7.11103345 12.02124010
   6.00551663  1.71296738  0.50455974
   7.96009654  0.00065714  9.39435005
   0.71500325  8.82334327  3.13144994
   3.62254686  4.41134304  3.13144994
   5.05255347  4.41265732  9.39435005
   0.00000000  0.00000000  6.26289988
   4.33755016  4.41200018  6.26289988
   0.00000000  0.00000000  0.00000000
   4.33755016  4.41200018  0.00000000
   8.48473964  3.74480210  3.13144994
   0.19036067  5.07919826  9.39435005
   4.14718948  0.66719802  9.39435005
   4.52791085  8.15680228  3.13144994
 


--------------------------------------------------------------------------------------------------------


 k-point  1 :   0.0000 0.0000 0.0000  plane waves:   25779
 k-point  2 :   0.1250 0.0000 0.0000  plane waves:   25843
 k-point  3 :   0.2500 0.0000 0.0000  plane waves:   25870
 k-point  4 :   0.3750 0.0000 0.0000  plane waves:   25824
 k-point  5 :   0.5000 0.0000 0.0000  plane waves:   25880
 k-point  6 :   0.0000 0.1250 0.0000  plane waves:   25805
 k-point  7 :   0.1250 0.1250 0.0000  plane waves:   25812
 k-point  8 :   0.2500 0.1250 0.0000  plane waves:   25840
 k-point  9 :   0.3750 0.1250 0.0000  plane waves:   25848
 k-point 10 :   0.5000 0.1250 0.0000  plane waves:   25844
 k-point 11 :   0.0000 0.2500 0.0000  plane waves:   25825
 k-point 12 :   0.1250 0.2500 0.0000  plane waves:   25819
 k-point 13 :   0.2500 0.2500 0.0000  plane waves:   25834
 k-point 14 :   0.3750 0.2500 0.0000  plane waves:   25828
 k-point 15 :   0.5000 0.2500 0.0000  plane waves:   25842
 k-point 16 :   0.0000 0.3750 0.0000  plane waves:   25811
 k-point 17 :   0.1250 0.3750 0.0000  plane waves:   25810
 k-point 18 :   0.2500 0.3750 0.0000  plane waves:   25799
 k-point 19 :   0.3750 0.3750 0.0000  plane waves:   25801
 k-point 20 :   0.5000 0.3750 0.0000  plane waves:   25792
 k-point 21 :   0.0000 0.5000 0.0000  plane waves:   25816
 k-point 22 :   0.1250 0.5000 0.0000  plane waves:   25810
 k-point 23 :   0.2500 0.5000 0.0000  plane waves:   25746
 k-point 24 :   0.3750 0.5000 0.0000  plane waves:   25786
 k-point 25 :   0.5000 0.5000 0.0000  plane waves:   25796
 k-point 26 :   0.0000 0.0000 0.1667  plane waves:   25815
 k-point 27 :   0.1250 0.0000 0.1667  plane waves:   25836
 k-point 28 :   0.2500 0.0000 0.1667  plane waves:   25852
 k-point 29 :   0.3750 0.0000 0.1667  plane waves:   25831
 k-point 30 :   0.5000 0.0000 0.1667  plane waves:   25824
 k-point 31 :   0.0000 0.1250 0.1667  plane waves:   25794
 k-point 32 :   0.1250 0.1250 0.1667  plane waves:   25800
 k-point 33 :   0.2500 0.1250 0.1667  plane waves:   25838
 k-point 34 :   0.3750 0.1250 0.1667  plane waves:   25846
 k-point 35 :   0.5000 0.1250 0.1667  plane waves:   25838
 k-point 36 :   0.0000 0.2500 0.1667  plane waves:   25832
 k-point 37 :   0.1250 0.2500 0.1667  plane waves:   25809
 k-point 38 :   0.2500 0.2500 0.1667  plane waves:   25819
 k-point 39 :   0.3750 0.2500 0.1667  plane waves:   25832
 k-point 40 :   0.5000 0.2500 0.1667  plane waves:   25842
 k-point 41 :   0.0000 0.3750 0.1667  plane waves:   25813
 k-point 42 :   0.1250 0.3750 0.1667  plane waves:   25808
 k-point 43 :   0.2500 0.3750 0.1667  plane waves:   25802
 k-point 44 :   0.3750 0.3750 0.1667  plane waves:   25803
 k-point 45 :   0.5000 0.3750 0.1667  plane waves:   25810
 k-point 46 :   0.0000 0.5000 0.1667  plane waves:   25842
 k-point 47 :   0.1250 0.5000 0.1667  plane waves:   25808
 k-point 48 :   0.2500 0.5000 0.1667  plane waves:   25804
 k-point 49 :   0.3750 0.5000 0.1667  plane waves:   25796
 k-point 50 :   0.5000 0.5000 0.1667  plane waves:   25788
 k-point 51 :   0.0000 0.0000 0.3333  plane waves:   25810
 k-point 52 :   0.1250 0.0000 0.3333  plane waves:   25792
 k-point 53 :   0.2500 0.0000 0.3333  plane waves:   25833
 k-point 54 :   0.3750 0.0000 0.3333  plane waves:   25834
 k-point 55 :   0.5000 0.0000 0.3333  plane waves:   25842
 k-point 56 :   0.0000 0.1250 0.3333  plane waves:   25808
 k-point 57 :   0.1250 0.1250 0.3333  plane waves:   25807
 k-point 58 :   0.2500 0.1250 0.3333  plane waves:   25810
 k-point 59 :   0.3750 0.1250 0.3333  plane waves:   25833
 k-point 60 :   0.5000 0.1250 0.3333  plane waves:   25850
 k-point 61 :   0.0000 0.2500 0.3333  plane waves:   25799
 k-point 62 :   0.1250 0.2500 0.3333  plane waves:   25806
 k-point 63 :   0.2500 0.2500 0.3333  plane waves:   25802
 k-point 64 :   0.3750 0.2500 0.3333  plane waves:   25829
 k-point 65 :   0.5000 0.2500 0.3333  plane waves:   25826
 k-point 66 :   0.0000 0.3750 0.3333  plane waves:   25800
 k-point 67 :   0.1250 0.3750 0.3333  plane waves:   25809
 k-point 68 :   0.2500 0.3750 0.3333  plane waves:   25804
 k-point 69 :   0.3750 0.3750 0.3333  plane waves:   25819
 k-point 70 :   0.5000 0.3750 0.3333  plane waves:   25816
 k-point 71 :   0.0000 0.5000 0.3333  plane waves:   25808
 k-point 72 :   0.1250 0.5000 0.3333  plane waves:   25806
 k-point 73 :   0.2500 0.5000 0.3333  plane waves:   25844
 k-point 74 :   0.3750 0.5000 0.3333  plane waves:   25820
 k-point 75 :   0.5000 0.5000 0.3333  plane waves:   25788
 k-point 76 :   0.0000 0.0000 0.5000  plane waves:   25750
 k-point 77 :   0.1250 0.0000 0.5000  plane waves:   25782
 k-point 78 :   0.2500 0.0000 0.5000  plane waves:   25816
 k-point 79 :   0.3750 0.0000 0.5000  plane waves:   25826
 k-point 80 :   0.5000 0.0000 0.5000  plane waves:   25836
 k-point 81 :   0.0000 0.1250 0.5000  plane waves:   25812
 k-point 82 :   0.1250 0.1250 0.5000  plane waves:   25786
 k-point 83 :   0.2500 0.1250 0.5000  plane waves:   25812
 k-point 84 :   0.3750 0.1250 0.5000  plane waves:   25844
 k-point 85 :   0.5000 0.1250 0.5000  plane waves:   25856
 k-point 86 :   0.0000 0.2500 0.5000  plane waves:   25788
 k-point 87 :   0.1250 0.2500 0.5000  plane waves:   25816
 k-point 88 :   0.2500 0.2500 0.5000  plane waves:   25818
 k-point 89 :   0.3750 0.2500 0.5000  plane waves:   25828
 k-point 90 :   0.5000 0.2500 0.5000  plane waves:   25856
 k-point 91 :   0.0000 0.3750 0.5000  plane waves:   25842
 k-point 92 :   0.1250 0.3750 0.5000  plane waves:   25808
 k-point 93 :   0.2500 0.3750 0.5000  plane waves:   25824
 k-point 94 :   0.3750 0.3750 0.5000  plane waves:   25792
 k-point 95 :   0.5000 0.3750 0.5000  plane waves:   25804
 k-point 96 :   0.0000 0.5000 0.5000  plane waves:   25860
 k-point 97 :   0.1250 0.5000 0.5000  plane waves:   25812
 k-point 98 :   0.2500 0.5000 0.5000  plane waves:   25820
 k-point 99 :   0.3750 0.5000 0.5000  plane waves:   25808
 k-point ** :   0.5000 0.5000 0.5000  plane waves:   25800

 maximum and minimum number of plane-waves per node :     12972    12844

 maximum number of plane-waves:     25880
 maximum index in each direction: 
   IXMAX=   16   IYMAX=   16   IZMAX=   23
   IXMIN=  -16   IYMIN=  -16   IZMIN=  -23


 parallel 3D FFT for wavefunctions:
    minimum data exchange during FFTs selected (reduces bandwidth)
 parallel 3D FFT for charge:
    minimum data exchange during FFTs selected (reduces bandwidth)


 total amount of memory used by VASP MPI-rank0   724589. kBytes
=======================================================================

   base      :      30000. kBytes
   nonl-proj :     565063. kBytes
   fftplans  :       9699. kBytes
   grid      :      14648. kBytes
   one-center:        155. kBytes
   wavefun   :     105024. kBytes
 
     INWAV:  cpu time    0.0000: real time    0.0001
 Broyden mixing: mesh for mixing (old mesh)
   NGX = 33   NGY = 33   NGZ = 47
  (NGX  =140   NGY  =140   NGZ  =192)
  gives a total of  51183 points

 initial charge density was supplied:
 charge density of overlapping atoms calculated
 number of electron     176.0000000 magnetization 
 keeping initial charge density in first step


--------------------------------------------------------------------------------------------------------


 Maximum index for augmentation-charges         1074 (set IRDMAX)


--------------------------------------------------------------------------------------------------------


 First call to EWALD:  gamma=   0.180
 Maximum number of real-space cells 3x 3x 2
 Maximum number of reciprocal cells 2x 3x 3

    FEWALD:  cpu time    0.0030: real time    0.0552


--------------------------------------- Iteration      1(   1)  ---------------------------------------


    POTLOK:  cpu time    0.1260: real time    0.3560
    SETDIJ:  cpu time    0.1060: real time    0.1333
     EDDAV:  cpu time   68.7955: real time   69.6937
       DOS:  cpu time    0.0140: real time    0.1420
    --------------------------------------------
      LOOP:  cpu time   69.0415: real time   70.3251

 eigenvalue-minimisations  : 24000
 total energy-change (2. order) : 0.1471737E+04  (-0.6977084E+04)
 number of electron     176.0000000 magnetization 
 augmentation part      176.0000000 magnetization 

 Free energy of the ion-electron system (eV)
  ---------------------------------------------------
  alpha Z        PSCENC =       274.57589780
  Ewald energy   TEWEN  =     -8733.92648156
  -Hartree energ DENC   =     -3555.26968032
  -exchange      EXHF   =         0.00000000
  -V(xc)+E(xc)   XCENC  =        32.59385958
  PAW double counting   =     10703.56087596   -10293.56226698
  entropy T*S    EENTRO =        -0.17914228
  eigenvalues    EBANDS =       384.35386786
  atomic energy  EATOM  =     12659.59018207
  Solvation  Ediel_sol  =         0.00000000
  ---------------------------------------------------
  free energy    TOTEN  =      1471.73711213 eV

  energy without entropy =     1471.91625441  energy(sigma->0) =     1471.82668327


--------------------------------------------------------------------------------------------------------




--------------------------------------- Iteration      1(   2)  ---------------------------------------


     EDDAV:  cpu time   77.0643: real time   77.4030
       DOS:  cpu time    0.0120: real time    0.0118
    --------------------------------------------
      LOOP:  cpu time   77.0763: real time   77.4148

 eigenvalue-minimisations  : 28104
 total energy-change (2. order) :-0.1350628E+04  (-0.1300195E+04)
 number of electron     176.0000000 magnetization 
 augmentation part      176.0000000 magnetization 

 Free energy of the ion-electron system (eV)
  ---------------------------------------------------
  alpha Z        PSCENC =       274.57589780
  Ewald energy   TEWEN  =     -8733.92648156
  -Hartree energ DENC   =     -3555.26968032
  -exchange      EXHF   =         0.00000000
  -V(xc)+E(xc)   XCENC  =        32.59385958
  PAW double counting   =     10703.56087596   -10293.56226698
  entropy T*S    EENTRO =        -0.00175458
  eigenvalues    EBANDS =      -966.45200962
  atomic energy  EATOM  =     12659.59018207
  Solvation  Ediel_sol  =         0.00000000
  ---------------------------------------------------
  free energy    TOTEN  =       121.10862235 eV

  energy without entropy =      121.11037693  energy(sigma->0) =      121.10949964


--------------------------------------------------------------------------------------------------------




--------------------------------------- Iteration      1(   3)  ---------------------------------------


     EDDAV:  cpu time   81.4776: real time   81.6706
       DOS:  cpu time    0.0140: real time    0.0136
    --------------------------------------------
      LOOP:  cpu time   81.4916: real time   81.6843

 eigenvalue-minimisations  : 30048
 total energy-change (2. order) :-0.1710501E+03  (-0.1700461E+03)
 number of electron     176.0000000 magnetization 
 augmentation part      176.0000000 magnetization 

 Free energy of the ion-electron system (eV)
  ---------------------------------------------------
  alpha Z        PSCENC =       274.57589780
  Ewald energy   TEWEN  =     -8733.92648156
  -Hartree energ DENC   =     -3555.26968032
  -exchange      EXHF   =         0.00000000
  -V(xc)+E(xc)   XCENC  =        32.59385958
  PAW double counting   =     10703.56087596   -10293.56226698
  entropy T*S    EENTRO =        -0.00000000
  eigenvalues    EBANDS =     -1137.50388281
  atomic energy  EATOM  =     12659.59018207
  Solvation  Ediel_sol  =         0.00000000
  ---------------------------------------------------
  free energy    TOTEN  =       -49.94149625 eV

  energy without entropy =      -49.94149625  energy(sigma->0) =      -49.94149625


--------------------------------------------------------------------------------------------------------




--------------------------------------- Iteration      1(   4)  ---------------------------------------


     EDDAV:  cpu time   83.0664: real time   83.2638
       DOS:  cpu time    0.0130: real time    0.0132
    --------------------------------------------
      LOOP:  cpu time   83.0794: real time   83.2770

 eigenvalue-minimisations  : 30840
 total energy-change (2. order) :-0.7828007E+01  (-0.7816214E+01)
 number of electron     176.0000000 magnetization 
 augmentation part      176.0000000 magnetization 

 Free energy of the ion-electron system (eV)
  ---------------------------------------------------
  alpha Z        PSCENC =       274.57589780
  Ewald energy   TEWEN  =     -8733.92648156
  -Hartree energ DENC   =     -3555.26968032
  -exchange      EXHF   =         0.00000000
  -V(xc)+E(xc)   XCENC  =        32.59385958
  PAW double counting   =     10703.56087596   -10293.56226698
  entropy T*S    EENTRO =        -0.00000000
  eigenvalues    EBANDS =     -1145.33188964
  atomic energy  EATOM  =     12659.59018207
  Solvation  Ediel_sol  =         0.00000000
  ---------------------------------------------------
  free energy    TOTEN  =       -57.76950309 eV

  energy without entropy =      -57.76950309  energy(sigma->0) =      -57.76950309


--------------------------------------------------------------------------------------------------------




--------------------------------------- Iteration      1(   5)  ---------------------------------------


     EDDAV:  cpu time   89.7054: real time   89.9193
       DOS:  cpu time    0.0140: real time    0.0133
    CHARGE:  cpu time    5.8031: real time    5.8444
    MIXING:  cpu time    0.0060: real time    0.0227
    --------------------------------------------
      LOOP:  cpu time   95.5285: real time   95.7997

 eigenvalue-minimisations  : 34080
 total energy-change (2. order) :-0.3849042E+00  (-0.3848858E+00)
 number of electron     175.9999984 magnetization 
 augmentation part       -6.2467627 magnetization 

 Broyden mixing:
  rms(total) = 0.67189E+00    rms(broyden)= 0.67188E+00
  rms(prec ) = 0.85173E+00
  weight for this iteration     100.00

 Free energy of the ion-electron system (eV)
  ---------------------------------------------------
  alpha Z        PSCENC =       274.57589780
  Ewald energy   TEWEN  =     -8733.92648156
  -Hartree energ DENC   =     -3555.26968032
  -exchange      EXHF   =         0.00000000
  -V(xc)+E(xc)   XCENC  =        32.59385958
  PAW double counting   =     10703.56087596   -10293.56226698
  entropy T*S    EENTRO =        -0.00000000
  eigenvalues    EBANDS =     -1145.71679380
  atomic energy  EATOM  =     12659.59018207
  Solvation  Ediel_sol  =         0.00000000
  ---------------------------------------------------
  free energy    TOTEN  =       -58.15440725 eV

  energy without entropy =      -58.15440725  energy(sigma->0) =      -58.15440725


--------------------------------------------------------------------------------------------------------




--------------------------------------- Iteration      1(   6)  ---------------------------------------


    POTLOK:  cpu time    0.0870: real time    0.0871
    SETDIJ:  cpu time    0.0060: real time    0.0058
     EDDAV:  cpu time   90.0383: real time   90.5356
       DOS:  cpu time    0.0140: real time    0.0136
    CHARGE:  cpu time    5.7881: real time    5.8132
    MIXING:  cpu time    0.0060: real time    0.0307
    --------------------------------------------
      LOOP:  cpu time   95.9394: real time   96.4860

 eigenvalue-minimisations  : 34224
 total energy-change (2. order) : 0.1450528E+01  (-0.1896541E+00)
 number of electron     175.9999984 magnetization 
 augmentation part       -5.9100160 magnetization 

 Broyden mixing:
  rms(total) = 0.44160E+00    rms(broyden)= 0.44160E+00
  rms(prec ) = 0.49894E+00
  weight for this iteration     100.00

 eigenvalues of (default mixing * dielectric matrix)
  average eigenvalue GAMMA=   2.0508
  2.0508

 Free energy of the ion-electron system (eV)
  ---------------------------------------------------
  alpha Z        PSCENC =       274.57589780
  Ewald energy   TEWEN  =     -8733.92648156
  -Hartree energ DENC   =     -3545.57757126
  -exchange      EXHF   =         0.00000000
  -V(xc)+E(xc)   XCENC  =        34.02121740
  PAW double counting   =     11008.96338702   -10596.16651829
  entropy T*S    EENTRO =        -0.00000000
  eigenvalues    EBANDS =     -1158.18399273
  atomic energy  EATOM  =     12659.59018207
  Solvation  Ediel_sol  =         0.00000000
  ---------------------------------------------------
  free energy    TOTEN  =       -56.70387955 eV

  energy without entropy =      -56.70387955  energy(sigma->0) =      -56.70387955


--------------------------------------------------------------------------------------------------------




--------------------------------------- Iteration      1(   7)  ---------------------------------------


    POTLOK:  cpu time    0.0870: real time    0.0869
    SETDIJ:  cpu time    0.0050: real time    0.0058
     EDDAV:  cpu time   91.6781: real time   91.9252
       DOS:  cpu time    0.0130: real time    0.0132
    CHARGE:  cpu time    5.7391: real time    5.7542
    MIXING:  cpu time    0.0030: real time    0.0088
    --------------------------------------------
      LOOP:  cpu time   97.5252: real time   97.7942

 eigenvalue-minimisations  : 35112
 total energy-change (2. order) : 0.1365253E+00  (-0.1523160E+00)
 number of electron     175.9999984 magnetization 
 augmentation part       -5.6925972 magnetization 

 Broyden mixing:
  rms(total) = 0.21114E+00    rms(broyden)= 0.21114E+00
  rms(prec ) = 0.22009E+00
  weight for this iteration     100.00

 eigenvalues of (default mixing * dielectric matrix)
  average eigenvalue GAMMA=   2.1321
  1.5989  2.6653

 Free energy of the ion-electron system (eV)
  ---------------------------------------------------
  alpha Z        PSCENC =       274.57589780
  Ewald energy   TEWEN  =     -8733.92648156
  -Hartree energ DENC   =     -3538.19591455
  -exchange      EXHF   =         0.00000000
  -V(xc)+E(xc)   XCENC  =        35.41475928
  PAW double counting   =     11548.14674765   -11133.58924826
  entropy T*S    EENTRO =        -0.00000000
  eigenvalues    EBANDS =     -1168.58329667
  atomic energy  EATOM  =     12659.59018207
  Solvation  Ediel_sol  =         0.00000000
  ---------------------------------------------------
  free energy    TOTEN  =       -56.56735424 eV

  energy without entropy =      -56.56735424  energy(sigma->0) =      -56.56735424


--------------------------------------------------------------------------------------------------------




--------------------------------------- Iteration      1(   8)  ---------------------------------------


    POTLOK:  cpu time    0.0860: real time    0.0865
    SETDIJ:  cpu time    0.0060: real time    0.0059
     EDDAV:  cpu time   80.6677: real time   80.8797
       DOS:  cpu time    0.0130: real time    0.0132
    CHARGE:  cpu time    5.7421: real time    5.7569
    MIXING:  cpu time    0.0020: real time    0.0062
    --------------------------------------------
      LOOP:  cpu time   86.5168: real time   86.7483

 eigenvalue-minimisations  : 29760
 total energy-change (2. order) :-0.2905816E-01  (-0.2284961E-01)
 number of electron     175.9999984 magnetization 
 augmentation part       -5.8163958 magnetization 

 Broyden mixing:
  rms(total) = 0.58552E-01    rms(broyden)= 0.58552E-01
  rms(prec ) = 0.64397E-01
  weight for this iteration     100.00

 eigenvalues of (default mixing * dielectric matrix)
  average eigenvalue GAMMA=   1.7057
  2.3416  1.2068  1.5688

 Free energy of the ion-electron system (eV)
  ---------------------------------------------------
  alpha Z        PSCENC =       274.57589780
  Ewald energy   TEWEN  =     -8733.92648156
  -Hartree energ DENC   =     -3541.51671517
  -exchange      EXHF   =         0.00000000
  -V(xc)+E(xc)   XCENC  =        35.83135468
  PAW double counting   =     11942.17724533   -11528.97205111
  entropy T*S    EENTRO =        -0.00000000
  eigenvalues    EBANDS =     -1164.35584444
  atomic energy  EATOM  =     12659.59018207
  Solvation  Ediel_sol  =         0.00000000
  ---------------------------------------------------
  free energy    TOTEN  =       -56.59641240 eV

  energy without entropy =      -56.59641240  energy(sigma->0) =      -56.59641240


--------------------------------------------------------------------------------------------------------




--------------------------------------- Iteration      1(   9)  ---------------------------------------


    POTLOK:  cpu time    0.0870: real time    0.0870
    SETDIJ:  cpu time    0.0060: real time    0.0059
     EDDAV:  cpu time   88.4606: real time   88.8585
       DOS:  cpu time    0.0140: real time    0.0137
    CHARGE:  cpu time    5.7201: real time    5.7351
    MIXING:  cpu time    0.0020: real time    0.0022
    --------------------------------------------
      LOOP:  cpu time   94.2897: real time   94.7022

 eigenvalue-minimisations  : 33408
 total energy-change (2. order) : 0.3441481E-02  (-0.1354784E-02)
 number of electron     175.9999984 magnetization 
 augmentation part       -5.7912209 magnetization 

 Broyden mixing:
  rms(total) = 0.27104E-01    rms(broyden)= 0.27104E-01
  rms(prec ) = 0.28128E-01
  weight for this iteration     100.00

 eigenvalues of (default mixing * dielectric matrix)
  average eigenvalue GAMMA=   1.7106
  1.0722  2.1048  2.1048  1.5604

 Free energy of the ion-electron system (eV)
  ---------------------------------------------------
  alpha Z        PSCENC =       274.57589780
  Ewald energy   TEWEN  =     -8733.92648156
  -Hartree energ DENC   =     -3540.19818689
  -exchange      EXHF   =         0.00000000
  -V(xc)+E(xc)   XCENC  =        35.90530533
  PAW double counting   =     11936.01147499   -11522.62045002
  entropy T*S    EENTRO =        -0.00000000
  eigenvalues    EBANDS =     -1165.93071264
  atomic energy  EATOM  =     12659.59018207
  Solvation  Ediel_sol  =         0.00000000
  ---------------------------------------------------
  free energy    TOTEN  =       -56.59297091 eV

  energy without entropy =      -56.59297091  energy(sigma->0) =      -56.59297091


--------------------------------------------------------------------------------------------------------




--------------------------------------- Iteration      1(  10)  ---------------------------------------


    POTLOK:  cpu time    0.0860: real time    0.0865
    SETDIJ:  cpu time    0.0060: real time    0.0058
     EDDAV:  cpu time   86.4019: real time   86.6794
       DOS:  cpu time    0.0130: real time    0.0134
    CHARGE:  cpu time    5.7681: real time    5.7874
    MIXING:  cpu time    0.0080: real time    0.0084
    --------------------------------------------
      LOOP:  cpu time   92.2830: real time   92.5809

 eigenvalue-minimisations  : 32448
 total energy-change (2. order) :-0.1115100E-02  (-0.3506802E-03)
 number of electron     175.9999984 magnetization 
 augmentation part       -5.7849189 magnetization 

 Broyden mixing:
  rms(total) = 0.16335E-01    rms(broyden)= 0.16335E-01
  rms(prec ) = 0.17085E-01
  weight for this iteration     100.00

 eigenvalues of (default mixing * dielectric matrix)
  average eigenvalue GAMMA=   1.8434
  3.1768  2.6373  1.2172  1.2172  0.9683

 Free energy of the ion-electron system (eV)
  ---------------------------------------------------
  alpha Z        PSCENC =       274.57589780
  Ewald energy   TEWEN  =     -8733.92648156
  -Hartree energ DENC   =     -3539.98137943
  -exchange      EXHF   =         0.00000000
  -V(xc)+E(xc)   XCENC  =        35.93319790
  PAW double counting   =     11921.20412364   -11507.87996602
  entropy T*S    EENTRO =        -0.00000000
  eigenvalues    EBANDS =     -1166.10966042
  atomic energy  EATOM  =     12659.59018207
  Solvation  Ediel_sol  =         0.00000000
  ---------------------------------------------------
  free energy    TOTEN  =       -56.59408601 eV

  energy without entropy =      -56.59408601  energy(sigma->0) =      -56.59408601


--------------------------------------------------------------------------------------------------------




--------------------------------------- Iteration      1(  11)  ---------------------------------------


    POTLOK:  cpu time    0.1140: real time    0.1154
    SETDIJ:  cpu time    0.0120: real time    0.0126
     EDDAV:  cpu time   80.6337: real time   80.8648
       DOS:  cpu time    0.0140: real time    0.0135
    CHARGE:  cpu time    5.7231: real time    5.7395
    MIXING:  cpu time    0.0030: real time    0.0024
    --------------------------------------------
      LOOP:  cpu time   86.4998: real time   86.7483

 eigenvalue-minimisations  : 29688
 total energy-change (2. order) :-0.4223948E-03  (-0.7870302E-04)
 number of electron     175.9999984 magnetization 
 augmentation part       -5.7914911 magnetization 

 Broyden mixing:
  rms(total) = 0.40370E-02    rms(broyden)= 0.40370E-02
  rms(prec ) = 0.41610E-02
  weight for this iteration     100.00

 eigenvalues of (default mixing * dielectric matrix)
  average eigenvalue GAMMA=   1.6267
  2.7945  2.5131  1.2824  1.1215  1.1215  0.9274

 Free energy of the ion-electron system (eV)
  ---------------------------------------------------
  alpha Z        PSCENC =       274.57589780
  Ewald energy   TEWEN  =     -8733.92648156
  -Hartree energ DENC   =     -3540.29676215
  -exchange      EXHF   =         0.00000000
  -V(xc)+E(xc)   XCENC  =        35.98330339
  PAW double counting   =     11934.42843411   -11521.24401372
  entropy T*S    EENTRO =        -0.00000000
  eigenvalues    EBANDS =     -1165.70506834
  atomic energy  EATOM  =     12659.59018207
  Solvation  Ediel_sol  =         0.00000000
  ---------------------------------------------------
  free energy    TOTEN  =       -56.59450841 eV

  energy without entropy =      -56.59450841  energy(sigma->0) =      -56.59450841


--------------------------------------------------------------------------------------------------------




--------------------------------------- Iteration      1(  12)  ---------------------------------------


    POTLOK:  cpu time    0.0860: real time    0.0866
    SETDIJ:  cpu time    0.0060: real time    0.0059
     EDDAV:  cpu time   85.9339: real time   86.3282
       DOS:  cpu time    0.0140: real time    0.0135
    CHARGE:  cpu time    5.7321: real time    5.7471
    MIXING:  cpu time    0.0020: real time    0.0026
    --------------------------------------------
      LOOP:  cpu time   91.7750: real time   92.1839

 eigenvalue-minimisations  : 32184
 total energy-change (2. order) : 0.3688638E-06  (-0.5876617E-05)
 number of electron     175.9999984 magnetization 
 augmentation part       -5.7922053 magnetization 

 Broyden mixing:
  rms(total) = 0.17365E-02    rms(broyden)= 0.17365E-02
  rms(prec ) = 0.18389E-02
  weight for this iteration     100.00

 eigenvalues of (default mixing * dielectric matrix)
  average eigenvalue GAMMA=   1.8299
  3.1325  3.1325  1.9871  1.3836  1.0118  1.0809  1.0809

 Free energy of the ion-electron system (eV)
  ---------------------------------------------------
  alpha Z        PSCENC =       274.57589780
  Ewald energy   TEWEN  =     -8733.92648156
  -Hartree energ DENC   =     -3540.36539757
  -exchange      EXHF   =         0.00000000
  -V(xc)+E(xc)   XCENC  =        35.98348206
  PAW double counting   =     11936.60602503   -11523.39864506
  entropy T*S    EENTRO =        -0.00000000
  eigenvalues    EBANDS =     -1165.65957081
  atomic energy  EATOM  =     12659.59018207
  Solvation  Ediel_sol  =         0.00000000
  ---------------------------------------------------
  free energy    TOTEN  =       -56.59450804 eV

  energy without entropy =      -56.59450804  energy(sigma->0) =      -56.59450804


--------------------------------------------------------------------------------------------------------




--------------------------------------- Iteration      1(  13)  ---------------------------------------


    POTLOK:  cpu time    0.0870: real time    0.0870
    SETDIJ:  cpu time    0.0060: real time    0.0060
     EDDAV:  cpu time   78.4581: real time   78.6665
       DOS:  cpu time    0.0140: real time    0.0138
    CHARGE:  cpu time    5.7131: real time    5.7281
    MIXING:  cpu time    0.0020: real time    0.0024
    --------------------------------------------
      LOOP:  cpu time   84.2792: real time   84.5037

 eigenvalue-minimisations  : 28584
 total energy-change (2. order) :-0.8629955E-05  (-0.2555184E-05)
 number of electron     175.9999984 magnetization 
 augmentation part       -5.7919555 magnetization 

 Broyden mixing:
  rms(total) = 0.10188E-02    rms(broyden)= 0.10188E-02
  rms(prec ) = 0.10350E-02
  weight for this iteration     100.00

 eigenvalues of (default mixing * dielectric matrix)
  average eigenvalue GAMMA=   1.6650
[...]
     10     -14.8597      2.00000
     11     -14.8597      2.00000
     12     -14.8597      2.00000
     13     -14.8315      2.00000
     14     -14.8315      2.00000
     15     -14.8315      2.00000
     16     -14.8315      2.00000
     17     -14.8262      2.00000
     18     -14.8262      2.00000
     19     -14.8262      2.00000
     20     -14.8262      2.00000
     21     -14.8221      2.00000
     22     -14.8221      2.00000
     23     -14.8221      2.00000
     24     -14.8221      2.00000
     25     -10.0854      2.00000
     26     -10.0854      2.00000
     27     -10.0854      2.00000
     28     -10.0854      2.00000
     29      -9.8689      2.00000
     30      -9.8689      2.00000
     31      -9.8689      2.00000
     32      -9.8689      2.00000
     33      -9.7157      2.00000
     34      -9.7157      2.00000
     35      -9.7157      2.00000
     36      -9.7157      2.00000
     37      -5.9784      2.00000
     38      -5.9784      2.00000
     39      -5.9784      2.00000
     40      -5.9784      2.00000
     41      -5.9081      2.00000
     42      -5.9081      2.00000
     43      -5.9081      2.00000
     44      -5.9081      2.00000
     45      -5.8749      2.00000
     46      -5.8749      2.00000
     47      -5.8749      2.00000
     48      -5.8749      2.00000
     49      -5.7901      2.00000
     50      -5.7901      2.00000
     51      -5.7901      2.00000
     52      -5.7901      2.00000
     53      -1.2969      2.00000
     54      -1.2969      2.00000
     55      -1.2969      2.00000
     56      -1.2969      2.00000
     57      -0.7465      2.00000
     58      -0.7465      2.00000
     59      -0.7465      2.00000
     60      -0.7465      2.00000
     61      -0.3202      2.00000
     62      -0.3202      2.00000
     63      -0.3202      2.00000
     64      -0.3202      2.00000
     65       0.0194      2.00000
     66       0.0194      2.00000
     67       0.0194      2.00000
     68       0.0194      2.00000
     69       0.3581      2.00000
     70       0.3581      2.00000
     71       0.3581      2.00000
     72       0.3581      2.00000
     73       0.4679      2.00000
     74       0.4679      2.00000
     75       0.4679      2.00000
     76       0.4679      2.00000
     77       0.5767      2.00000
     78       0.5767      2.00000
     79       0.5767      2.00000
     80       0.5767      2.00000
     81       0.7030      2.00000
     82       0.7030      2.00000
     83       0.7030      2.00000
     84       0.7030      2.00000
     85       0.9334      2.00000
     86       0.9334      2.00000
     87       0.9334      2.00000
     88       0.9334      2.00000
     89       4.0608      0.00000
     90       4.0608      0.00000
     91       4.0608      0.00000
     92       4.0608      0.00000
     93       5.1313      0.00000
     94       5.1313      0.00000
     95       5.1313      0.00000
     96       5.1313      0.00000
     97       6.1246      0.00000
     98       6.1246      0.00000
     99       6.1246      0.00000
    100       6.1246      0.00000
    101       6.9016      0.00000
    102       6.9016      0.00000
    103       6.9016      0.00000
    104       6.9016      0.00000
    105       7.0359      0.00000
    106       7.0359      0.00000
    107       7.0359      0.00000
    108       7.0359      0.00000
    109       7.1998      0.00000
    110       7.1998      0.00000
    111       7.1998      0.00000
    112       7.1998      0.00000
    113       7.5506      0.00000
    114       7.5506      0.00000
    115       7.5506      0.00000
    116       7.5506      0.00000
    117       7.9194      0.00000
    118       7.9194      0.00000
    119       7.9195      0.00000
    120       7.9195      0.00000

 k-point   100 :       0.5000    0.5000    0.5000
  band No.  band energies     occupation 
      1     -19.0579      2.00000
      2     -19.0579      2.00000
      3     -19.0579      2.00000
      4     -19.0579      2.00000
      5     -14.8689      2.00000
      6     -14.8689      2.00000
      7     -14.8689      2.00000
      8     -14.8689      2.00000
      9     -14.8594      2.00000
     10     -14.8594      2.00000
     11     -14.8594      2.00000
     12     -14.8594      2.00000
     13     -14.8315      2.00000
     14     -14.8315      2.00000
     15     -14.8315      2.00000
     16     -14.8315      2.00000
     17     -14.8262      2.00000
     18     -14.8262      2.00000
     19     -14.8262      2.00000
     20     -14.8262      2.00000
     21     -14.8221      2.00000
     22     -14.8221      2.00000
     23     -14.8221      2.00000
     24     -14.8221      2.00000
     25     -10.0759      2.00000
     26     -10.0759      2.00000
     27     -10.0759      2.00000
     28     -10.0759      2.00000
     29      -9.8828      2.00000
     30      -9.8828      2.00000
     31      -9.8828      2.00000
     32      -9.8828      2.00000
     33      -9.7128      2.00000
     34      -9.7128      2.00000
     35      -9.7128      2.00000
     36      -9.7128      2.00000
     37      -5.9773      2.00000
     38      -5.9773      2.00000
     39      -5.9773      2.00000
     40      -5.9773      2.00000
     41      -5.9082      2.00000
     42      -5.9082      2.00000
     43      -5.9082      2.00000
     44      -5.9082      2.00000
     45      -5.8725      2.00000
     46      -5.8725      2.00000
     47      -5.8725      2.00000
     48      -5.8725      2.00000
     49      -5.7865      2.00000
     50      -5.7865      2.00000
     51      -5.7864      2.00000
     52      -5.7864      2.00000
     53      -1.3385      2.00000
     54      -1.3385      2.00000
     55      -1.3385      2.00000
     56      -1.3385      2.00000
     57      -0.7474      2.00000
     58      -0.7474      2.00000
     59      -0.7474      2.00000
     60      -0.7474      2.00000
     61      -0.3079      2.00000
     62      -0.3079      2.00000
     63      -0.3079      2.00000
     64      -0.3079      2.00000
     65       0.0351      2.00000
     66       0.0351      2.00000
     67       0.0351      2.00000
     68       0.0351      2.00000
     69       0.3968      2.00000
     70       0.3968      2.00000
     71       0.3968      2.00000
     72       0.3968      2.00000
     73       0.4552      2.00000
     74       0.4552      2.00000
     75       0.4552      2.00000
     76       0.4552      2.00000
     77       0.5505      2.00000
     78       0.5505      2.00000
     79       0.5505      2.00000
     80       0.5505      2.00000
     81       0.7087      2.00000
     82       0.7087      2.00000
     83       0.7087      2.00000
     84       0.7087      2.00000
     85       0.9588      2.00000
     86       0.9588      2.00000
     87       0.9589      2.00000
     88       0.9589      2.00000
     89       3.9600      0.00000
     90       3.9600      0.00000
     91       3.9600      0.00000
     92       3.9600      0.00000
     93       5.1336      0.00000
     94       5.1336      0.00000
     95       5.1336      0.00000
     96       5.1336      0.00000
     97       6.2203      0.00000
     98       6.2203      0.00000
     99       6.2203      0.00000
    100       6.2203      0.00000
    101       6.9666      0.00000
    102       6.9666      0.00000
    103       6.9666      0.00000
    104       6.9666      0.00000
    105       7.0523      0.00000
    106       7.0523      0.00000
    107       7.0523      0.00000
    108       7.0523      0.00000
    109       7.2269      0.00000
    110       7.2269      0.00000
    111       7.2269      0.00000
    112       7.2269      0.00000
    113       7.5363      0.00000
    114       7.5363      0.00000
    115       7.5363      0.00000
    116       7.5363      0.00000
    117       7.8928      0.00000
    118       7.8928      0.00000
    119       7.8928      0.00000
    120       7.8928      0.00000


--------------------------------------------------------------------------------------------------------


 soft charge-density along one line, spin component           1
         0         1         2         3         4         5         6         7         8         9
 total charge-density along one line
 
 pseudopotential strength for first ion, spin component:           1
 64.868  68.440  -0.006  -0.004   0.007  -0.007  -0.005   0.010
 68.440  72.212  -0.006  -0.004   0.008  -0.008  -0.005   0.010
 -0.006  -0.006  16.783   0.001   0.009  22.366   0.001   0.012
 -0.004  -0.004   0.001  16.773   0.000   0.001  22.354   0.000
  0.007   0.008   0.009   0.000  16.783   0.012   0.000  22.366
 -0.007  -0.008  22.366   0.001   0.012  29.817   0.002   0.016
 -0.005  -0.005   0.001  22.354   0.000   0.002  29.800   0.000
  0.010   0.010   0.012   0.000  22.366   0.016   0.000  29.816
  0.013   0.014   0.002  -0.000  -0.001   0.002  -0.000  -0.002
  0.001   0.001  -0.001  -0.001  -0.000  -0.001  -0.001  -0.000
 -0.008  -0.008   0.001  -0.001  -0.001   0.001  -0.001  -0.001
  0.000   0.000  -0.000   0.002  -0.001  -0.000   0.002  -0.001
 -0.000  -0.000   0.001  -0.000   0.002   0.002  -0.000   0.002
 total augmentation occupancy for first ion, spin component:           1
  3.052  -1.419   0.222   0.173  -0.285  -0.094  -0.090   0.108  -0.063  -0.003   0.039   0.006   0.002
 -1.419   1.700  -0.189  -0.143   0.249   0.081   0.075  -0.097   0.067   0.004  -0.041  -0.005  -0.002
  0.222  -0.189   3.165   0.039   0.315  -0.700  -0.025  -0.235  -0.006  -0.008   0.011  -0.014   0.025
  0.173  -0.143   0.039   2.844   0.012  -0.025  -0.457  -0.003  -0.016   0.000   0.004   0.003  -0.001
 -0.285   0.249   0.315   0.012   3.140  -0.235  -0.003  -0.685   0.009  -0.015  -0.013  -0.011   0.028
 -0.094   0.081  -0.700  -0.025  -0.235   0.222   0.011   0.116   0.004   0.004  -0.004   0.005  -0.010
 -0.090   0.075  -0.025  -0.457  -0.003   0.011   0.098  -0.003   0.006   0.000  -0.002  -0.001   0.000
  0.108  -0.097  -0.235  -0.003  -0.685   0.116  -0.003   0.214  -0.004   0.005   0.004   0.005  -0.011
 -0.063   0.067  -0.006  -0.016   0.009   0.004   0.006  -0.004   0.004   0.000  -0.002  -0.000   0.000
 -0.003   0.004  -0.008   0.000  -0.015   0.004   0.000   0.005   0.000   0.001  -0.000   0.001  -0.000
  0.039  -0.041   0.011   0.004  -0.013  -0.004  -0.002   0.004  -0.002  -0.000   0.002   0.000   0.000
  0.006  -0.005  -0.014   0.003  -0.011   0.005  -0.001   0.005  -0.000   0.001   0.000   0.001  -0.000
  0.002  -0.002   0.025  -0.001   0.028  -0.010   0.000  -0.011   0.000  -0.000   0.000  -0.000   0.002


------------------------ aborting loop because EDIFF is reached ----------------------------------------


    CHARGE:  cpu time    5.7491: real time    5.7733
    FORLOC:  cpu time    0.0110: real time    0.0308
    FORNL :  cpu time   15.2987: real time   15.3602
    STRESS:  cpu time   42.5275: real time   42.7793
    FORCOR:  cpu time    0.0980: real time    0.1310
    FORHAR:  cpu time    0.0290: real time    0.0353
    MIXING:  cpu time    0.0050: real time    0.0051
    OFIELD:  cpu time    0.0000: real time    0.0353

  FORCE on cell =-STRESS in cart. coord.  units (eV):
  Direction    XX          YY          ZZ          XY          YZ          ZX
  --------------------------------------------------------------------------------------
  Alpha Z   274.57590   274.57590   274.57590
  Ewald   -2951.30367 -2917.58973 -2865.05795    -0.00001     0.00001     0.00000
  Hartree  1155.93668  1177.59999  1206.92454     0.00000    -0.00000    -0.00000
  E(xc)    -729.22387  -729.16447  -729.13520    -0.00000     0.00000     0.00000
  Local   -1684.08904 -1741.04692 -1821.11137     0.00001    -0.00000     0.00000
  n-local  1991.29057  1991.90843  1991.40225    -1.33914     0.02324    -0.00911
  augment    -3.30441    -3.83692    -3.48407    -0.00000    -0.00000     0.00000
  Kinetic  1950.02805  1953.08126  1949.70179    -1.49812    -0.01132    -0.02765
  Fock        0.00000     0.00000     0.00000     0.00000     0.00000     0.00000
  -------------------------------------------------------------------------------------
  Total       3.91021     5.52754     3.81590     0.00000     0.00000     0.00000
  in kB       6.53379     9.23627     6.37619     0.00000     0.00000     0.00000
  external pressure =        7.38 kB  Pullay stress =        0.00 kB


 VOLUME and BASIS-vectors are now :
 -----------------------------------------------------------------------------
  energy-cutoff  :      520.00
  volume of cell :      958.84
      direct lattice vectors                 reciprocal lattice vectors
     8.675100327  0.000000000  0.000000000     0.115272442  0.000000000  0.000000000
     0.000000000  8.824000359  0.000000000     0.000000000  0.113327285  0.000000000
     0.000000000  0.000000000 12.525799751     0.000000000  0.000000000  0.079835222

  length of vectors
     8.675100327  8.824000359 12.525799751     0.115272442  0.113327285  0.079835222


 FORCES acting on ions
    electron-ion (+dipol)            ewald-force                    non-local-force                 convergence-correction
 -----------------------------------------------------------------------------------------------
   0.239E+02 -.190E+02 -.172E+02   -.244E+02 0.195E+02 0.175E+02   0.528E+00 -.462E+00 -.363E+00   -.853E-05 -.362E-04 -.283E-04
   -.239E+02 0.190E+02 0.172E+02   0.244E+02 -.195E+02 -.175E+02   -.528E+00 0.462E+00 0.363E+00   0.692E-05 0.350E-04 0.266E-04
   0.239E+02 0.190E+02 0.172E+02   -.244E+02 -.195E+02 -.175E+02   0.528E+00 0.462E+00 0.363E+00   -.738E-05 0.361E-04 0.268E-04
   -.239E+02 -.190E+02 -.172E+02   0.244E+02 0.195E+02 0.175E+02   -.528E+00 -.462E+00 -.363E+00   0.904E-05 -.350E-04 -.280E-04
   -.239E+02 0.190E+02 -.172E+02   0.244E+02 -.195E+02 0.175E+02   -.528E+00 0.462E+00 -.363E+00   0.691E-05 0.350E-04 -.287E-04
   0.239E+02 -.190E+02 0.172E+02   -.244E+02 0.195E+02 -.175E+02   0.528E+00 -.462E+00 0.363E+00   -.852E-05 -.362E-04 0.297E-04
   -.239E+02 -.190E+02 0.172E+02   0.244E+02 0.195E+02 -.175E+02   -.528E+00 -.462E+00 0.363E+00   0.902E-05 -.350E-04 0.294E-04
   0.239E+02 0.190E+02 -.172E+02   -.244E+02 -.195E+02 0.175E+02   0.528E+00 0.462E+00 -.363E+00   -.737E-05 0.361E-04 -.288E-04
   0.347E+02 -.120E+02 -.105E-03   -.354E+02 0.124E+02 -.595E-04   0.677E+00 -.386E+00 0.407E-18   -.164E-03 0.582E-04 0.367E-05
   -.347E+02 0.120E+02 0.238E-05   0.354E+02 -.124E+02 0.101E-04   -.677E+00 0.386E+00 -.407E-18   0.161E-03 -.560E-04 -.329E-05
   0.347E+02 0.120E+02 0.228E-05   -.354E+02 -.124E+02 0.101E-04   0.677E+00 0.386E+00 0.434E-18   -.161E-03 -.578E-04 -.329E-05
   -.347E+02 -.120E+02 -.105E-03   0.354E+02 0.124E+02 -.595E-04   -.677E+00 -.386E+00 -.434E-18   0.164E-03 0.566E-04 0.367E-05
   -.226E-05 -.196E-04 0.731E-05   -.946E-05 -.823E-04 0.310E-04   0.000E+00 0.000E+00 0.000E+00   -.261E-05 0.282E-05 -.146E-05
   -.185E-04 -.535E-05 0.104E-04   -.780E-04 -.228E-04 0.438E-04   0.000E+00 0.000E+00 0.000E+00   0.372E-05 -.114E-05 -.196E-05
   -.380E-07 -.188E-04 0.329E-05   -.251E-06 -.790E-04 0.141E-04   0.000E+00 0.000E+00 0.000E+00   -.283E-05 0.272E-05 0.625E-06
   -.208E-04 -.464E-05 0.243E-06   -.872E-04 -.195E-04 0.123E-05   0.000E+00 0.000E+00 0.000E+00   0.394E-05 -.124E-05 0.112E-05
   -.937E+01 -.266E+02 0.325E-05   0.945E+01 0.266E+02 0.141E-04   -.736E-01 0.508E-01 0.542E-19   0.202E-03 0.523E-04 -.418E-05
   0.937E+01 0.266E+02 -.139E-03   -.945E+01 -.266E+02 -.367E-04   0.736E-01 -.508E-01 -.542E-19   -.206E-03 -.546E-04 0.463E-05
   -.937E+01 0.266E+02 -.139E-03   0.945E+01 -.266E+02 -.367E-04   -.736E-01 -.508E-01 0.542E-19   0.206E-03 -.532E-04 0.463E-05
   0.937E+01 -.266E+02 0.330E-05   -.945E+01 0.266E+02 0.141E-04   0.736E-01 0.508E-01 -.542E-19   -.203E-03 0.541E-04 -.418E-05
 -----------------------------------------------------------------------------------------------
   0.128E-03 -.195E-03 -.548E-03   0.178E-14 0.284E-13 -.185E-13   0.111E-15 -.486E-16 0.000E+00   0.186E-05 0.242E-05 -.129E-05
 
 
 POSITION                                       TOTAL-FORCE (eV/Angst)
 -----------------------------------------------------------------------------------
      1.66797      2.69903      6.76746         0.000523      0.000236      0.000798
      7.00713      6.12497      5.75834        -0.000523     -0.000236     -0.000798
      6.00552      1.71297      5.75834         0.000523     -0.000236     -0.000798
      2.66958      7.11103      6.76746        -0.000523      0.000236      0.000798
      7.00713      6.12497      0.50456        -0.000523     -0.000236      0.000798
      1.66797      2.69903     12.02124         0.000523      0.000236     -0.000798
      2.66958      7.11103     12.02124        -0.000523      0.000236     -0.000798
      6.00552      1.71297      0.50456         0.000523     -0.000236      0.000798
      7.96010      0.00066      9.39435        -0.000708      0.000077     -0.000000
      0.71500      8.82334      3.13145         0.000708     -0.000077      0.000000
      3.62255      4.41134      3.13145        -0.000708     -0.000077      0.000000
      5.05255      4.41266      9.39435         0.000708      0.000077     -0.000000
      0.00000      0.00000      6.26290         0.000000      0.000000     -0.000000
      4.33755      4.41200      6.26290         0.000000      0.000000     -0.000000
      0.00000      0.00000      0.00000         0.000000      0.000000     -0.000000
      4.33755      4.41200      0.00000         0.000000      0.000000     -0.000000
      8.48474      3.74480      3.13145        -0.000218     -0.000431      0.000000
      0.19036      5.07920      9.39435         0.000218      0.000431     -0.000000
      4.14719      0.66720      9.39435        -0.000218      0.000431     -0.000000
      4.52791      8.15680      3.13145         0.000218     -0.000431     -0.000000
 -----------------------------------------------------------------------------------
    total drift:                                0.000130     -0.000192     -0.000549


--------------------------------------------------------------------------------------------------------



  FREE ENERGIE OF THE ION-ELECTRON SYSTEM (eV)
  ---------------------------------------------------
  free  energy   TOTEN  =       -56.59451783 eV

  energy  without entropy=      -56.59451783  energy(sigma->0) =      -56.59451783
 


--------------------------------------------------------------------------------------------------------


    POTLOK:  cpu time    0.0990: real time    0.1778


--------------------------------------------------------------------------------------------------------




--------------------------------------------------------------------------------------------------------


  
 reached required accuracy - stopping structural energy minimisation
 writing wavefunctions
     LOOP+:  cpu time 1408.1429: real time 1440.1528
    4ORBIT:  cpu time    0.0000: real time    0.0000

 total amount of memory used by VASP MPI-rank0   724589. kBytes
=======================================================================

   base      :      30000. kBytes
   nonl-proj :     565063. kBytes
   fftplans  :       9699. kBytes
   grid      :      14648. kBytes
   one-center:        155. kBytes
   wavefun   :     105024. kBytes
 
  
  
 General timing and accounting informations for this job:
 ========================================================
  
                  Total CPU time used (sec):     1468.545
                            User time (sec):     1423.329
                          System time (sec):       45.216
                         Elapsed time (sec):     1503.184
  
                   Maximum memory used (kb):      824876.
                   Average memory used (kb):           0.
  
                          Minor page faults:       303040
                          Major page faults:          348
                 Voluntary context switches:        18145
