 vasp.5.4.4.18Apr17-6-g9f103f2a35 (build Aug 19 2019 13:15:05) complex          
  
 executed on             LinuxIFC date 2020.04.24  22:31:17
 running on  120 total cores
 distrk:  each k-point on  120 cores,    1 groups
 distr:  one band on NCORES_PER_BAND=   1 cores,  120 groups


--------------------------------------------------------------------------------------------------------


 INCAR:
 POTCAR:    PAW_PBE Pb_d 06Sep2000                
 POTCAR:    PAW_PBE I 08Apr2002                   
 POTCAR:    PAW_PBE Cs_sv 08Apr2002               

 ----------------------------------------------------------------------------- 
|                                                                             |
|           W    W    AA    RRRRR   N    N  II  N    N   GGGG   !!!           |
|           W    W   A  A   R    R  NN   N  II  NN   N  G    G  !!!           |
|           W    W  A    A  R    R  N N  N  II  N N  N  G       !!!           |
|           W WW W  AAAAAA  RRRRR   N  N N  II  N  N N  G  GGG   !            |
|           WW  WW  A    A  R   R   N   NN  II  N   NN  G    G                |
|           W    W  A    A  R    R  N    N  II  N    N   GGGG   !!!           |
|                                                                             |
|      For optimal performance we recommend to set                            |
|        NCORE= 4 - approx SQRT( number of cores)                             |
|      NCORE specifies how many cores store one orbital (NPAR=cpu/NCORE).     |
|      This setting can  greatly improve the performance of VASP for DFT.     |
|      The default,   NCORE=1            might be grossly inefficient         |
|      on modern multi-core architectures or massively parallel machines.     |
|      Do your own testing !!!!                                               |
|      Unfortunately you need to use the default for GW and RPA calculations. |
|      (for HF NCORE is supported but not extensively tested yet)             |
|                                                                             |
 ----------------------------------------------------------------------------- 

 POTCAR:    PAW_PBE Pb_d 06Sep2000                
   VRHFIN =Pb:                                                                  
   LEXCH  = PE                                                                  
   EATOM  =  1661.6185 eV,  122.1255 Ry                                         
                                                                                
   TITEL  = PAW_PBE Pb_d 06Sep2000                                              
   LULTRA =        F    use ultrasoft PP ?                                      
   IUNSCR =        1    unscreen: 0-lin 1-nonlin 2-no                           
   RPACOR =    2.200    partial core radius                                     
   POMASS =  207.200; ZVAL   =   14.000    mass and valenz                      
   RCORE  =    2.500    outmost cutoff radius                                   
   RWIGS  =    3.260; RWIGS  =    1.725    wigner-seitz radius (au A)           
   ENMAX  =  237.835; ENMIN  =  178.376 eV                                      
   ICORE  =        3    local potential                                         
   LCOR   =        T    correct aug charges                                     
   LPAW   =        T    paw PP                                                  
   EAUG   =  391.914                                                            
   DEXC   =    0.000                                                            
   RMAX   =    2.565    core radius for proj-oper                               
   RAUG   =    1.300    factor for augmentation sphere                          
   RDEP   =    2.643    radius for radial grids                                 
   RDEPT  =    2.092    core radius for aug-charge                              
                                                                                
   Atomic configuration                                                         
   16 entries                                                                   
     n  l   j            E        occ.                                          
     1  0  0.50    -88091.8466   2.0000                                         
     2  0  0.50    -15753.4197   2.0000                                         
     2  1  1.50    -13508.1797   6.0000                                         
     3  0  0.50     -3781.7194   2.0000                                         
     3  1  1.50     -3138.2529   6.0000                                         
     3  2  2.50     -2483.2977  10.0000                                         
     4  0  0.50      -856.2895   2.0000                                         
     4  1  1.50      -645.4942   6.0000                                         
     4  2  2.50      -401.8768  10.0000                                         
     4  3  3.50      -132.9059  14.0000                                         
     5  0  0.50      -144.0950   2.0000                                         
     5  1  1.50       -85.7879   6.0000                                         
     5  2  2.50       -21.1769  10.0000                                         
     6  0  0.50       -12.0372   2.0000                                         
     6  1  1.50        -3.4971   2.0000                                         
     5  3  2.50        -2.7212   0.0000                                         
   Description                                                                  
     l       E           TYP  RCUT    TYP  RCUT                                 
     2    -21.1768523     23  2.500                                             
     2      1.3605826     23  2.500                                             
     0    -12.0371562     23  2.500                                             
     0     13.6058260     23  2.500                                             
     1     -3.4971339     23  2.500                                             
     1     13.6058260     23  2.500                                             
     3     -1.3605826      7  2.500                                             
  local pseudopotential read in
  partial core-charges read in
  partial kinetic energy density read in
  atomic valenz-charges read in
  non local Contribution for L=           2  read in
    real space projection operators read in
  non local Contribution for L=           2  read in
    real space projection operators read in
  non local Contribution for L=           0  read in
    real space projection operators read in
  non local Contribution for L=           0  read in
    real space projection operators read in
  non local Contribution for L=           1  read in
    real space projection operators read in
  non local Contribution for L=           1  read in
    real space projection operators read in
    PAW grid and wavefunctions read in
 
   number of l-projection  operators is LMAX  =           6
   number of lm-projection operators is LMMAX =          18
 
 POTCAR:    PAW_PBE I 08Apr2002                   
   VRHFIN =I : s2p5                                                             
   LEXCH  = PE                                                                  
   EATOM  =   315.8678 eV,   23.2156 Ry                                         
                                                                                
   TITEL  = PAW_PBE I 08Apr2002                                                 
   LULTRA =        F    use ultrasoft PP ?                                      
   IUNSCR =        1    unscreen: 0-lin 1-nonlin 2-no                           
   RPACOR =    2.200    partial core radius                                     
   POMASS =  126.904; ZVAL   =    7.000    mass and valenz                      
   RCORE  =    2.300    outmost cutoff radius                                   
   RWIGS  =    2.810; RWIGS  =    1.487    wigner-seitz radius (au A)           
   ENMAX  =  175.647; ENMIN  =  131.735 eV                                      
   ICORE  =        3    local potential                                         
   LCOR   =        T    correct aug charges                                     
   LPAW   =        T    paw PP                                                  
   EAUG   =  370.139                                                            
   DEXC   =    0.000                                                            
   RMAX   =    2.359    core radius for proj-oper                               
   RAUG   =    1.300    factor for augmentation sphere                          
   RDEP   =    2.392    radius for radial grids                                 
   RDEPT  =    2.170    core radius for aug-charge                              
                                                                                
   Atomic configuration                                                         
   13 entries                                                                   
     n  l   j            E        occ.                                          
     1  0  0.50    -32976.3739   2.0000                                         
     2  0  0.50     -5094.5933   2.0000                                         
     2  1  1.50     -4572.0131   6.0000                                         
     3  0  0.50     -1028.2813   2.0000                                         
     3  1  1.50      -859.0250   6.0000                                         
     3  2  2.50      -605.7620  10.0000                                         
     4  0  0.50      -180.5540   2.0000                                         
     4  1  1.50      -127.5306   6.0000                                         
     4  2  2.50       -50.2720  10.0000                                         
     5  0  0.50       -17.4058   2.0000                                         
     5  1  0.50        -7.0851   5.0000                                         
     5  2  1.50        -7.0750   0.0000                                         
     4  3  2.50        -7.0750   0.0000                                         
   Description                                                                  
     l       E           TYP  RCUT    TYP  RCUT                                 
     0    -17.4058016     23  2.300                                             
     0    -18.7663842     23  2.300                                             
     1     -7.0850686     23  2.300                                             
     1     -4.2150896     23  2.300                                             
     2     -7.0750295     23  2.300                                             
     3     -1.3605826     23  2.300                                             
  local pseudopotential read in
  partial core-charges read in
  partial kinetic energy density read in
  atomic valenz-charges read in
  non local Contribution for L=           0  read in
    real space projection operators read in
  non local Contribution for L=           0  read in
    real space projection operators read in
  non local Contribution for L=           1  read in
    real space projection operators read in
  non local Contribution for L=           1  read in
    real space projection operators read in
  non local Contribution for L=           2  read in
    real space projection operators read in
    PAW grid and wavefunctions read in
 
   number of l-projection  operators is LMAX  =           5
   number of lm-projection operators is LMMAX =          13
 
 POTCAR:    PAW_PBE Cs_sv 08Apr2002               
   VRHFIN =Cs: 5s5p6s                                                           
   LEXCH  = PE                                                                  
   EATOM  =   555.6835 eV,   40.8416 Ry                                         
                                                                                
   TITEL  = PAW_PBE Cs_sv 08Apr2002                                             
   LULTRA =        F    use ultrasoft PP ?                                      
   IUNSCR =        1    unscreen: 0-lin 1-nonlin 2-no                           
   RPACOR =    2.200    partial core radius                                     
   POMASS =  132.900; ZVAL   =    9.000    mass and valenz                      
   RCORE  =    2.500    outmost cutoff radius                                   
   RWIGS  =    2.500; RWIGS  =    1.323    wigner-seitz radius (au A)           
   ENMAX  =  220.318; ENMIN  =  165.238 eV                                      
   RCLOC  =    2.207    cutoff for local pot                                    
   LCOR   =        T    correct aug charges                                     
   LPAW   =        T    paw PP                                                  
   EAUG   =  407.933                                                            
   DEXC   =    0.000                                                            
   RMAX   =    2.554    core radius for proj-oper                               
   RAUG   =    1.300    factor for augmentation sphere                          
   RDEP   =    2.590    radius for radial grids                                 
   RDEPT  =    2.117    core radius for aug-charge                              
                                                                                
   Atomic configuration                                                         
   13 entries                                                                   
     n  l   j            E        occ.                                          
     1  0  0.50    -35790.1377   2.0000                                         
     2  0  0.50     -5613.6201   2.0000                                         
     2  1  1.50     -5035.0101   6.0000                                         
     3  0  0.50     -1167.0767   2.0000                                         
     3  1  1.50      -980.9754   6.0000                                         
     3  2  2.50      -708.0703  10.0000                                         
     4  0  0.50      -220.2386   2.0000                                         
     4  1  1.50      -160.7596   6.0000                                         
     4  2  2.50       -74.2354  10.0000                                         
     5  0  0.50       -26.7287   2.0000                                         
     6  0  0.50        -2.0862   1.0000                                         
     5  1  1.50       -13.5159   6.0000                                         
     5  2  2.50        -0.4136   0.0000                                         
   Description                                                                  
     l       E           TYP  RCUT    TYP  RCUT                                 
     0    -26.7287425     23  1.900                                             
     0     -2.0862306     23  1.900                                             
     1    -13.5158719     23  2.500                                             
     1     -2.7211652     23  2.500                                             
     2     -0.4136171     23  2.500                                             
  local pseudopotential read in
  partial core-charges read in
  partial kinetic energy density read in
  atomic valenz-charges read in
  non local Contribution for L=           0  read in
    real space projection operators read in
  non local Contribution for L=           0  read in
    real space projection operators read in
  non local Contribution for L=           1  read in
    real space projection operators read in
  non local Contribution for L=           1  read in
    real space projection operators read in
  non local Contribution for L=           2  read in
    real space projection operators read in
    PAW grid and wavefunctions read in
 
   number of l-projection  operators is LMAX  =           5
   number of lm-projection operators is LMMAX =          13
 
 Optimization of the real space projectors (new method)

 maximal supplied QI-value         = 15.12
 optimisation between [QCUT,QGAM] = [ 10.73, 21.62] = [ 32.26,130.87] Ry 
 Optimized for a Real-space Cutoff    1.38 Angstroem

   l    n(q)    QCUT    max X(q) W(low)/X(q) W(high)/X(q)  e(spline) 
   2      8    10.734     3.846    0.42E-03    0.65E-04    0.45E-07
   2      8    10.734     8.593    0.38E-03    0.21E-03    0.11E-06
   0      9    10.734    20.082    0.60E-04    0.15E-03    0.97E-07
   0      9    10.734     8.597    0.89E-04    0.21E-03    0.14E-06
   1      8    10.734    33.223    0.23E-03    0.26E-03    0.11E-06
   1      8    10.734    15.899    0.21E-03    0.24E-03    0.10E-06
 Optimization of the real space projectors (new method)

 maximal supplied QI-value         = 16.25
 optimisation between [QCUT,QGAM] = [ 10.73, 21.61] = [ 32.22,130.83] Ry 
 Optimized for a Real-space Cutoff    1.30 Angstroem

   l    n(q)    QCUT    max X(q) W(low)/X(q) W(high)/X(q)  e(spline) 
   0      8    10.726   194.483    0.28E-03    0.91E-04    0.87E-07
   0      8    10.726   190.334    0.27E-03    0.88E-04    0.85E-07
   1      8    10.726   116.687    0.16E-03    0.48E-03    0.15E-06
   1      8    10.726    88.696    0.16E-03    0.47E-03    0.15E-06
   2      7    10.726     4.877    0.19E-03    0.30E-04    0.27E-07
 Optimization of the real space projectors (new method)

 maximal supplied QI-value         = 15.12
 optimisation between [QCUT,QGAM] = [ 10.73, 21.62] = [ 32.26,130.87] Ry 
 Optimized for a Real-space Cutoff    1.55 Angstroem

   l    n(q)    QCUT    max X(q) W(low)/X(q) W(high)/X(q)  e(spline) 
   0     10    10.734    25.322    0.12E-03    0.12E-04    0.48E-06
   0     10    10.734    99.187    0.12E-03    0.12E-04    0.47E-06
   1     10    10.734    11.761    0.20E-03    0.42E-03    0.27E-06
   1     10    10.734     8.275    0.21E-03    0.46E-03    0.30E-06
   2      9    10.734     3.829    0.32E-03    0.79E-04    0.33E-06
  PAW_PBE Pb_d 06Sep2000                :
 energy of atom  1       EATOM=-1661.6185
 kinetic energy error for atom=    0.0063 (will be added to EATOM!!)
  PAW_PBE I 08Apr2002                   :
 energy of atom  2       EATOM= -315.8678
 kinetic energy error for atom=    0.0010 (will be added to EATOM!!)
  PAW_PBE Cs_sv 08Apr2002               :
 energy of atom  3       EATOM= -555.6835
 kinetic energy error for atom=    0.0031 (will be added to EATOM!!)
 
 
 POSCAR: delta-Cesium_Lead_Iodide                
  positions in direct lattice
  velocities in cartesian coordinates
 exchange correlation table for  LEXCH =        8
   RHO(1)=    0.500       N(1)  =     2000
   RHO(2)=  100.500       N(2)  =     4000
 


--------------------------------------------------------------------------------------------------------


 ion  position               nearest neighbor table
   1  0.161  0.250  0.439-   9 3.10   7 3.24   7 3.24  14 3.28  14 3.28  13 3.37
   2  0.839  0.750  0.561-  10 3.10   8 3.24   8 3.24  13 3.28  13 3.28  14 3.37
   3  0.339  0.750  0.939-  11 3.10   5 3.24   5 3.24  16 3.28  16 3.28  15 3.37
   4  0.661  0.250  0.061-  12 3.10   6 3.24   6 3.24  15 3.28  15 3.28  16 3.37
   5  0.160  0.250  0.002-   3 3.24   3 3.24
   6  0.840  0.750  0.998-   4 3.24   4 3.24
   7  0.340  0.750  0.502-   1 3.24   1 3.24
   8  0.660  0.250  0.498-   2 3.24   2 3.24
   9  0.300  0.250  0.285-   1 3.10
  10  0.700  0.750  0.715-   2 3.10
  11  0.200  0.750  0.785-   3 3.10
  12  0.800  0.250  0.215-   4 3.10
  13  0.034  0.250  0.614-   2 3.28   2 3.28   1 3.37
  14  0.966  0.750  0.386-   1 3.28   1 3.28   2 3.37
  15  0.466  0.750  0.114-   4 3.28   4 3.28   3 3.37
  16  0.534  0.250  0.886-   3 3.28   3 3.28   4 3.37
  17  0.417  0.250  0.672-
  18  0.583  0.750  0.328-
  19  0.083  0.750  0.172-
  20  0.917  0.250  0.828-
 
  LATTYP: Found a simple orthorhombic cell.
 ALAT       =     4.7905001640
 B/A-ratio  =     2.1781024798
 C/A-ratio  =     3.7075459914
  
  Lattice vectors:
  
 A1 = (   0.0000000000,  -4.7905001640,   0.0000000000)
 A2 = ( -10.4342002869,   0.0000000000,   0.0000000000)
 A3 = (   0.0000000000,   0.0000000000, -17.7609996796)


Analysis of symmetry for initial positions (statically):
=====================================================================
 Subroutine PRICEL returns:
 Original cell was already a primitive cell.
 

 Routine SETGRP: Setting up the symmetry group for a 
 simple orthorhombic supercell.


 Subroutine GETGRP returns: Found  8 space group operations
 (whereof  2 operations were pure point group operations)
 out of a pool of  8 trial point group operations.


The static configuration has the point symmetry S_2 .
 The point group associated with its full space group is D_2h.


Analysis of symmetry for dynamics (positions and initial velocities):
=====================================================================
 Subroutine PRICEL returns:
 Original cell was already a primitive cell.
 

 Routine SETGRP: Setting up the symmetry group for a 
 simple orthorhombic supercell.


 Subroutine GETGRP returns: Found  8 space group operations
 (whereof  2 operations were pure point group operations)
 out of a pool of  8 trial point group operations.


The dynamic configuration has the point symmetry S_2 .
 The point group associated with its full space group is D_2h.


 Subroutine INISYM returns: Found  8 space group operations
 (whereof  2 operations are pure point group operations),
 and found     1 'primitive' translations

 
 
 KPOINTS: 0.100   1   2   1    2  0.100   48   12 
  k-points in reciprocal lattice
Space group operators:
 irot       det(A)        alpha          n_x          n_y          n_z        tau_x        tau_y        tau_z
    1     1.000000     0.000000     1.000000     0.000000     0.000000     0.000000     0.000000     0.000000
    2    -1.000000     0.000000     1.000000     0.000000     0.000000     0.000000     0.000000     0.000000
    3     1.000000   180.000000     0.000000     0.000000     1.000000    -0.500000    -0.000000    -0.500000
    4    -1.000000   180.000000     0.000000     0.000000     1.000000    -0.500000     0.000000    -0.500000
    5     1.000000   180.000000     1.000000     0.000000     0.000000    -0.500000    -0.500000    -0.500000
    6    -1.000000   180.000000     1.000000     0.000000     0.000000    -0.500000    -0.500000    -0.500000
    7     1.000000   180.000000     0.000000     1.000000     0.000000     0.000000    -0.500000     0.000000
    8    -1.000000   180.000000     0.000000     1.000000     0.000000     0.000000    -0.500000     0.000000

 ----------------------------------------------------------------------------- 
|                                                                             |
|           W    W    AA    RRRRR   N    N  II  N    N   GGGG   !!!           |
|           W    W   A  A   R    R  NN   N  II  NN   N  G    G  !!!           |
|           W    W  A    A  R    R  N N  N  II  N N  N  G       !!!           |
|           W WW W  AAAAAA  RRRRR   N  N N  II  N  N N  G  GGG   !            |
|           WW  WW  A    A  R   R   N   NN  II  N   NN  G    G                |
|           W    W  A    A  R    R  N    N  II  N    N   GGGG   !!!           |
|                                                                             |
|      Your generating k-point grid is not commensurate to the symmetry       |
|      of the lattice.  This can cause   slow convergence with respect        |
|      to k-points for HF type calculations                                   |
|      suggested SOLUTIONS:                                                   |
|       ) if not already the case, use automatic k-point generation           |
|       ) shift your grid to Gamma (G) (e.g. required for hex or fcc lattice) |
|                                                                             |
 ----------------------------------------------------------------------------- 

 
 Subroutine IBZKPT_HF returns following result:
 ==============================================
 
 Found     50 k-points in 1st BZ
 the following     50 k-points will be used (e.g. in the exchange kernel)
 Following reciprocal coordinates:   # in IRBZ
  0.000000  0.000000  0.000000    0.50000000   1 t-inv F
  0.000000  0.500000  0.000000    0.50000000   2 t-inv F
  0.000000  0.000000  0.000000    0.00000000   3 t-inv F
  0.250000  0.000000  0.000000    0.00000000   4 t-inv F
  0.500000  0.000000  0.000000    0.00000000   5 t-inv F
  0.500000  0.000000  0.000000    0.00000000   6 t-inv F
  0.500000  0.100000  0.000000    0.00000000   7 t-inv F
  0.500000  0.200000  0.000000    0.00000000   8 t-inv F
  0.500000  0.300000  0.000000    0.00000000   9 t-inv F
  0.500000  0.400000  0.000000    0.00000000  10 t-inv F
  0.500000  0.500000  0.000000    0.00000000  11 t-inv F
  0.500000  0.500000  0.000000    0.00000000  12 t-inv F
  0.250000  0.500000  0.000000    0.00000000  13 t-inv F
  0.000000  0.500000  0.000000    0.00000000  14 t-inv F
  0.000000  0.500000  0.000000    0.00000000  15 t-inv F
  0.000000  0.400000  0.000000    0.00000000  16 t-inv F
  0.000000  0.300000  0.000000    0.00000000  17 t-inv F
  0.000000  0.200000  0.000000    0.00000000  18 t-inv F
  0.000000  0.100000  0.000000    0.00000000  19 t-inv F
  0.000000  0.000000  0.000000    0.00000000  20 t-inv F
  0.000000  0.000000  0.000000    0.00000000  21 t-inv F
  0.000000  0.000000  0.250000    0.00000000  22 t-inv F
  0.000000  0.000000  0.500000    0.00000000  23 t-inv F
  0.000000  0.000000  0.500000    0.00000000  24 t-inv F
  0.250000  0.000000  0.500000    0.00000000  25 t-inv F
  0.500000  0.000000  0.500000    0.00000000  26 t-inv F
  0.500000  0.000000  0.500000    0.00000000  27 t-inv F
  0.500000  0.100000  0.500000    0.00000000  28 t-inv F
  0.500000  0.200000  0.500000    0.00000000  29 t-inv F
  0.500000  0.300000  0.500000    0.00000000  30 t-inv F
  0.500000  0.400000  0.500000    0.00000000  31 t-inv F
  0.500000  0.500000  0.500000    0.00000000  32 t-inv F
  0.500000  0.500000  0.500000    0.00000000  33 t-inv F
  0.250000  0.500000  0.500000    0.00000000  34 t-inv F
  0.000000  0.500000  0.500000    0.00000000  35 t-inv F
  0.000000  0.500000  0.500000    0.00000000  36 t-inv F
  0.000000  0.400000  0.500000    0.00000000  37 t-inv F
  0.000000  0.300000  0.500000    0.00000000  38 t-inv F
  0.000000  0.200000  0.500000    0.00000000  39 t-inv F
  0.000000  0.100000  0.500000    0.00000000  40 t-inv F
  0.000000  0.000000  0.500000    0.00000000  41 t-inv F
  0.500000  0.000000  0.000000    0.00000000  42 t-inv F
  0.500000  0.000000  0.250000    0.00000000  43 t-inv F
  0.500000  0.000000  0.500000    0.00000000  44 t-inv F
  0.000000  0.500000  0.000000    0.00000000  45 t-inv F
  0.000000  0.500000  0.250000    0.00000000  46 t-inv F
  0.000000  0.500000  0.500000    0.00000000  47 t-inv F
  0.500000  0.500000  0.000000    0.00000000  48 t-inv F
  0.500000  0.500000  0.250000    0.00000000  49 t-inv F
  0.500000  0.500000  0.500000    0.00000000  50 t-inv F


--------------------------------------------------------------------------------------------------------




 Dimension of arrays:
   k-points           NKPTS =     50   k-points in BZ     NKDIM =     50   number of bands    NBANDS=    120
   number of dos      NEDOS =   2001   number of ions     NIONS =     20
   non local maximal  LDIM  =      6   non local SUM 2l+1 LMDIM =     18
   total plane-waves  NPLWV = 145152
   max r-space proj   IRMAX =   2620   max aug-charges    IRDMAX=  75852
   dimension x,y,z NGX =    54 NGY =   28 NGZ =   96
   dimension x,y,z NGXF=   108 NGYF=   56 NGZF=  192
   support grid    NGXF=   216 NGYF=  112 NGZF=  384
   ions per type =               4  12   4
   NGX,Y,Z   is equivalent  to a cutoff of   8.60,  9.72,  8.99 a.u.
   NGXF,Y,Z  is equivalent  to a cutoff of  17.21, 19.43, 17.97 a.u.

 SYSTEM =  unknown system                          
 POSCAR =  delta-Cesium_Lead_Iodide                

 Startparameter for this run:
   NWRITE =      2    write-flag & timer
   PREC   = normal    normal or accurate (medium, high low for compatibility)
   ISTART =      1    job   : 0-new  1-cont  2-samecut
   ICHARG =     11    charge: 1-file 2-atom 10-const
   ISPIN  =      1    spin polarized calculation?
   LNONCOLLINEAR =      F non collinear calculations
   LSORBIT =      F    spin-orbit coupling
   INIWAV =      1    electr: 0-lowe 1-rand  2-diag
   LASPH  =      F    aspherical Exc in radial PAW
   METAGGA=      F    non-selfconsistent MetaGGA calc.

 Electronic Relaxation 1
   ENCUT  =  520.0 eV  33.07 Ry    5.75 a.u.  18.05  8.29 30.72*2*pi/ulx,y,z
   ENINI  =  520.0     initial cutoff
   ENAUG  =  407.9 eV  augmentation charge cutoff
   NELM   =     60;   NELMIN=  2; NELMDL=  0     # of ELM steps 
   EDIFF  = 0.1E-04   stopping-criterion for ELM
   LREAL  =      T    real-space projection
   NLSPLINE    = F    spline interpolate recip. space projectors
   LCOMPAT=      F    compatible to vasp.4.4
   GGA_COMPAT  = T    GGA compatible to vasp.4.4-vasp.4.6
   LMAXPAW     = -100 max onsite density
   LMAXMIX     =    2 max onsite mixed and CHGCAR
   VOSKOWN=      0    Vosko Wilk Nusair interpolation
   ROPT   =   -0.00050  -0.00050  -0.00050
 Ionic relaxation
   EDIFFG = 0.1E-03   stopping-criterion for IOM
   NSW    =      0    number of steps for IOM
   NBLOCK =      1;   KBLOCK =      1    inner block; outer block 
   IBRION =     -1    ionic relax: 0-MD 1-quasi-New 2-CG
   NFREE  =      0    steps in history (QN), initial steepest desc. (CG)
   ISIF   =      0    stress and relaxation
   IWAVPR =     10    prediction:  0-non 1-charg 2-wave 3-comb
   ISYM   =      3    0-nonsym 1-usesym 2-fastsym
   LCORR  =      T    Harris-Foulkes like correction to forces

   POTIM  = 0.5000    time-step for ionic-motion
   TEIN   =    0.0    initial temperature
   TEBEG  =    0.0;   TEEND  =   0.0 temperature during run
   SMASS  =  -3.00    Nose mass-parameter (am)
   estimated Nose-frequenzy (Omega)   =  0.10E-29 period in steps =****** mass=  -0.249E-26a.u.
   SCALEE = 1.0000    scale energy and forces
   NPACO  =    256;   APACO  = 16.0  distance and # of slots for P.C.
   PSTRESS=    0.0 pullay stress

  Mass of Ions in am
   POMASS = 207.20126.90132.90
  Ionic Valenz
   ZVAL   =  14.00  7.00  9.00
  Atomic Wigner-Seitz radii
   RWIGS  =  -1.00 -1.00 -1.00
  virtual crystal weights 
   VCA    =   1.00  1.00  1.00
   NELECT =     176.0000    total number of electrons
   NUPDOWN=      -1.0000    fix difference up-down

 DOS related values:
   EMIN   =  10.00;   EMAX   =-10.00  energy-range for DOS
   EFERMI =   0.00
   ISMEAR =     0;   SIGMA  =   0.05  broadening in eV -4-tet -1-fermi 0-gaus

 Electronic relaxation 2 (details)
   IALGO  =     58    algorithm
   LDIAG  =      T    sub-space diagonalisation (order eigenvalues)
   LSUBROT=      F    optimize rotation matrix (better conditioning)
   TURBO    =      0    0=normal 1=particle mesh
   IRESTART =      0    0=no restart 2=restart with 2 vectors
   NREBOOT  =      0    no. of reboots
   NMIN     =      0    reboot dimension
   EREF     =   0.00    reference energy to select bands
   IMIX   =      4    mixing-type and parameters
     AMIX     =   0.40;   BMIX     =  1.00
     AMIX_MAG =   1.60;   BMIX_MAG =  1.00
     AMIN     =   0.10
     WC   =   100.;   INIMIX=   1;  MIXPRE=   1;  MAXMIX= -45

 Intra band minimization:
   WEIMIN = 0.0000     energy-eigenvalue tresh-hold
   EBREAK =  0.21E-07  absolut break condition
   DEPER  =   0.30     relativ break condition  

   TIME   =   0.40     timestep for ELM

  volume/ion in A,a.u.               =      44.39       299.55
  Fermi-wavevector in a.u.,A,eV,Ry     =   0.954575  1.803885 12.397803  0.911213
  Thomas-Fermi vector in A             =   2.083334
 
 Write flags
   LWAVE        =      F    write WAVECAR
   LDOWNSAMPLE  =      F    k-point downsampling of WAVECAR
   LCHARG       =      F    write CHGCAR
   LVTOT        =      F    write LOCPOT, total local potential
   LVHAR        =      F    write LOCPOT, Hartree potential only
   LELF         =      F    write electronic localiz. function (ELF)
   LORBIT       =     10    0 simple, 1 ext, 2 COOP (PROOUT), +10 PAW based schemes


 Dipole corrections
   LMONO  =      F    monopole corrections only (constant potential shift)
   LDIPOL =      F    correct potential (dipole corrections)
   IDIPOL =      0    1-x, 2-y, 3-z, 4-all directions 
   EPSILON=  1.0000000 bulk dielectric constant

 Exchange correlation treatment:
   GGA     =    --    GGA type
   LEXCH   =     8    internal setting for exchange type
   VOSKOWN=      0    Vosko Wilk Nusair interpolation
   EXXOEP  =     0    0=HF, 1=EXX-LHF (local Hartree Fock) 2=EXX OEP
   LHFCALC =     T    Hartree Fock is set to
   LSYMGRAD=     F    symmetrize gradient (conserves proper symmetry)
   PRECFOCK=normal    Normal, Fast or Accurate (Low or Medium for compatibility)
   LRHFCALC=     F    long range Hartree Fock
   LRSCOR  =     F    long range correlation only (use DFT for short range part)
   LTHOMAS =     F    Thomas Fermi screening in HF
   LMODELHF=     F    short range full HF, long range fraction AEXX
   ENCUT4O =  -1.0   cutoff for four orbital integrals eV
   LMAXFOCK=     4    L truncation for augmentation on plane wave grid
   LMAXFOCKAE=  -1    L truncation for all-electron charge restoration on plane wave grid
   NMAXFOCKAE=   1    number of basis functions for all-electron charge restoration
   LFOCKAEDFT=     F  apply the AE augmentation even for DFT
   NKREDX  =     1    reduce k-point grid by
   NKREDY  =     1    reduce k-point grid by
   NKREDZ  =     1    reduce k-point grid by
   SHIFTRED=     F    shift reduced grid of Gamma
   HFKIDENT=     F    idential grid for each k-point
   ODDONLY =     F    use only odd q-grid points
   EVENONLY=     F    use only even q-grid points
   HFALPHA =   -1.0000 decay constant for conv. correction
   MCALPHA =    0.0000 extent of test-charge in conv. correction in multipole expansion
   AEXX    =    0.2500 exact exchange contribution
   HFSCREEN=    0.2000 screening length (either q_TF or 0.3 A-1)
   HFSCREENC=   0.2000 screening length for correlation (either q_TF or 0.3 A-1)
   HFRCUT  =    0.0000 spherical cutoff for potential kernel
   ALDAX   =    0.7500 LDA exchange part
   AGGAX   =    0.7500 GGA exchange part
   ALDAC   =    1.0000 LDA correlation
   AGGAC   =    1.0000 GGA correlation
   ENCUTFOCK=  -1.0 apply spherical cutoff to Coloumb kernel
   NBANDSGWLOW=     1    first orbital included in HF term
   NBLOCK_FOCK=    64    blocking factor in FOCK_ACC
 Linear response parameters
   LEPSILON=     F    determine dielectric tensor
   LRPA    =     F    only Hartree local field effects (RPA)
   LNABLA  =     F    use nabla operator in PAW spheres
   LVEL    =     F    velocity operator in full k-point grid
   LINTERFAST=   F  fast interpolation
   KINTER  =     0    interpolate to denser k-point grid
   CSHIFT  =0.1000    complex shift for real part using Kramers Kronig
   OMEGAMAX=  -1.0    maximum frequency
   DEG_THRESHOLD= 0.2000000E-02 threshold for treating states as degnerate
   RTIME   =   -0.100 relaxation time in fs
  (WPLASMAI=    0.000 imaginary part of plasma frequency in eV, 0.658/RTIME)
   DFIELD  = 0.0000000 0.0000000 0.0000000 field for delta impulse in time
 
 Orbital magnetization related:
   ORBITALMAG=     F  switch on orbital magnetization
   LCHIMAG   =     F  perturbation theory with respect to B field
   DQ        =  0.001000  dq finite difference perturbation B field
   LLRAUG    =     F  two centre corrections for induced B field



--------------------------------------------------------------------------------------------------------


 Static calculation
 charge density and potential remain constant during run
 non-spin polarized calculation
 Conjugate gradient for all bands (Freysoldt, et al. PRB 79, 241103 (2009))
 preconditioned conjugated gradient   charged. constant during bandupdate  
 perform sub-space diagonalisation
    before iterative eigenvector-optimisation
 no mixing
 using additional bands           32
 real space projection scheme for non local part
 use partial core corrections
 calculate Harris-corrections to forces 
   (improved forces if not selfconsistent)
 use gradient corrections 
 WARNING: stress and forces are not correct
  (second derivative of E(xc) not defined)
 use of overlap-Matrix (Vanderbilt PP)
 Gauss-broadening in eV      SIGMA  =   0.05


--------------------------------------------------------------------------------------------------------


  energy-cutoff  :      450.00
  volume of cell :      887.78
      direct lattice vectors                 reciprocal lattice vectors
    10.434200287  0.000000000  0.000000000     0.095838682  0.000000000  0.000000000
     0.000000000  4.790500164  0.000000000     0.000000000  0.208746470  0.000000000
     0.000000000  0.000000000 17.760999680     0.000000000  0.000000000  0.056303137

  length of vectors
    10.434200287  4.790500164 17.760999680     0.095838682  0.208746470  0.056303137


 
 old parameters found on file WAVECAR:
  energy-cutoff  :      450.00
  volume of cell :      887.78
      direct lattice vectors                 reciprocal lattice vectors
    10.434200287  0.000000000  0.000000000     0.095838682  0.000000000  0.000000000
     0.000000000  4.790500164  0.000000000     0.000000000  0.208746470  0.000000000
     0.000000000  0.000000000 17.760999680     0.000000000  0.000000000  0.056303137

  length of vectors

 
 k-points in units of 2pi/SCALE and weight: 0.100   1   2   1    2  0.100   48   12 
   0.00000000  0.00000000  0.00000000       0.500
   0.00000000  0.10437324  0.00000000       0.500
   0.00000000  0.00000000  0.00000000       0.000
   0.02395967  0.00000000  0.00000000       0.000
   0.04791934  0.00000000  0.00000000       0.000
   0.04791934  0.00000000  0.00000000       0.000
   0.04791934  0.02087465  0.00000000       0.000
   0.04791934  0.04174929  0.00000000       0.000
   0.04791934  0.06262394  0.00000000       0.000
   0.04791934  0.08349859  0.00000000       0.000
   0.04791934  0.10437324  0.00000000       0.000
   0.04791934  0.10437324  0.00000000       0.000
   0.02395967  0.10437324  0.00000000       0.000
   0.00000000  0.10437324  0.00000000       0.000
   0.00000000  0.10437324  0.00000000       0.000
   0.00000000  0.08349859  0.00000000       0.000
   0.00000000  0.06262394  0.00000000       0.000
   0.00000000  0.04174929  0.00000000       0.000
   0.00000000  0.02087465  0.00000000       0.000
   0.00000000  0.00000000  0.00000000       0.000
   0.00000000  0.00000000  0.00000000       0.000
   0.00000000  0.00000000  0.01407578       0.000
   0.00000000  0.00000000  0.02815157       0.000
   0.00000000  0.00000000  0.02815157       0.000
   0.02395967  0.00000000  0.02815157       0.000
   0.04791934  0.00000000  0.02815157       0.000
   0.04791934  0.00000000  0.02815157       0.000
   0.04791934  0.02087465  0.02815157       0.000
   0.04791934  0.04174929  0.02815157       0.000
   0.04791934  0.06262394  0.02815157       0.000
   0.04791934  0.08349859  0.02815157       0.000
   0.04791934  0.10437324  0.02815157       0.000
   0.04791934  0.10437324  0.02815157       0.000
   0.02395967  0.10437324  0.02815157       0.000
   0.00000000  0.10437324  0.02815157       0.000
   0.00000000  0.10437324  0.02815157       0.000
   0.00000000  0.08349859  0.02815157       0.000
   0.00000000  0.06262394  0.02815157       0.000
   0.00000000  0.04174929  0.02815157       0.000
   0.00000000  0.02087465  0.02815157       0.000
   0.00000000  0.00000000  0.02815157       0.000
   0.04791934  0.00000000  0.00000000       0.000
   0.04791934  0.00000000  0.01407578       0.000
   0.04791934  0.00000000  0.02815157       0.000
   0.00000000  0.10437324  0.00000000       0.000
   0.00000000  0.10437324  0.01407578       0.000
   0.00000000  0.10437324  0.02815157       0.000
   0.04791934  0.10437324  0.00000000       0.000
   0.04791934  0.10437324  0.01407578       0.000
   0.04791934  0.10437324  0.02815157       0.000
 
 k-points in reciprocal lattice and weights: 0.100   1   2   1    2  0.100   48   12 
   0.00000000  0.00000000  0.00000000       0.500
   0.00000000  0.50000000  0.00000000       0.500
   0.00000000  0.00000000  0.00000000       0.000
   0.25000000  0.00000000  0.00000000       0.000
   0.50000000  0.00000000  0.00000000       0.000
   0.50000000  0.00000000  0.00000000       0.000
   0.50000000  0.10000000  0.00000000       0.000
   0.50000000  0.20000000  0.00000000       0.000
   0.50000000  0.30000000  0.00000000       0.000
   0.50000000  0.40000000  0.00000000       0.000
   0.50000000  0.50000000  0.00000000       0.000
   0.50000000  0.50000000  0.00000000       0.000
   0.25000000  0.50000000  0.00000000       0.000
   0.00000000  0.50000000  0.00000000       0.000
   0.00000000  0.50000000  0.00000000       0.000
   0.00000000  0.40000000  0.00000000       0.000
   0.00000000  0.30000000  0.00000000       0.000
   0.00000000  0.20000000  0.00000000       0.000
   0.00000000  0.10000000  0.00000000       0.000
   0.00000000  0.00000000  0.00000000       0.000
   0.00000000  0.00000000  0.00000000       0.000
   0.00000000  0.00000000  0.25000000       0.000
   0.00000000  0.00000000  0.50000000       0.000
   0.00000000  0.00000000  0.50000000       0.000
   0.25000000  0.00000000  0.50000000       0.000
   0.50000000  0.00000000  0.50000000       0.000
   0.50000000  0.00000000  0.50000000       0.000
   0.50000000  0.10000000  0.50000000       0.000
   0.50000000  0.20000000  0.50000000       0.000
   0.50000000  0.30000000  0.50000000       0.000
   0.50000000  0.40000000  0.50000000       0.000
   0.50000000  0.50000000  0.50000000       0.000
   0.50000000  0.50000000  0.50000000       0.000
   0.25000000  0.50000000  0.50000000       0.000
   0.00000000  0.50000000  0.50000000       0.000
   0.00000000  0.50000000  0.50000000       0.000
   0.00000000  0.40000000  0.50000000       0.000
   0.00000000  0.30000000  0.50000000       0.000
   0.00000000  0.20000000  0.50000000       0.000
   0.00000000  0.10000000  0.50000000       0.000
   0.00000000  0.00000000  0.50000000       0.000
   0.50000000  0.00000000  0.00000000       0.000
   0.50000000  0.00000000  0.25000000       0.000
   0.50000000  0.00000000  0.50000000       0.000
   0.00000000  0.50000000  0.00000000       0.000
   0.00000000  0.50000000  0.25000000       0.000
   0.00000000  0.50000000  0.50000000       0.000
   0.50000000  0.50000000  0.00000000       0.000
   0.50000000  0.50000000  0.25000000       0.000
   0.50000000  0.50000000  0.50000000       0.000
 
 position of ions in fractional coordinates (direct lattice) 
   0.16093925  0.25000000  0.43901396
   0.83906069  0.74999998  0.56098601
   0.33906073  0.74999998  0.93901404
   0.66093927  0.25000000  0.06098604
   0.15991708  0.25000000  0.00198253
   0.84008297  0.74999998  0.99801747
   0.34008292  0.74999998  0.50198258
   0.65991708  0.25000000  0.49801747
   0.30023202  0.25000000  0.28497898
   0.69976796  0.74999998  0.71502104
   0.19976798  0.74999998  0.78497896
   0.80023204  0.25000000  0.21502102
   0.03388179  0.25000000  0.61372837
   0.96611821  0.74999998  0.38627166
   0.46611821  0.74999998  0.11372841
   0.53388179  0.25000000  0.88627163
   0.41713102  0.25000000  0.67193047
   0.58286898  0.74999998  0.32806953
   0.08286900  0.74999998  0.17193047
   0.91713102  0.25000000  0.82806953
 
 position of ions in cartesian coordinates  (Angst):
   1.67927241  1.19762504  7.79732680
   8.75492729  3.59287500  9.96367240
   3.53782761  3.59287500 16.67782808
   6.89637268  1.19762504  1.08317304
   1.66860682  1.19762504  0.03521166
   8.76559394  3.59287500 17.72578804
   3.54849332  3.59287500  8.91571244
   6.88570696  1.19762504  8.84528820
   3.13268102  1.19762504  5.06151162
   7.30151903  3.59287500 12.69948852
   2.08441913  3.59287500 13.94201100
   8.34978140  1.19762504  3.81898822
   0.35352936  1.19762504 10.90042934
  10.08067087  3.59287500  6.86057082
   4.86357072  3.59287500  2.01993021
   5.57062956  1.19762504 15.74107018
   4.35242856  1.19762504 11.93415683
   6.08177173  3.59287500  5.82684285
   0.86467176  3.59287500  3.05365699
   9.56952870  1.19762504 14.70734269
 


--------------------------------------------------------------------------------------------------------


 k-point  1 :   0.0000 0.0000 0.0000  plane waves:   19277
 k-point  2 :   0.0000 0.5000 0.0000  plane waves:   19244
 k-point  3 :   0.0000 0.0000 0.0000  plane waves:   19277
 k-point  4 :   0.2500 0.0000 0.0000  plane waves:   19276
 k-point  5 :   0.5000 0.0000 0.0000  plane waves:   19240
 k-point  6 :   0.5000 0.0000 0.0000  plane waves:   19240
 k-point  7 :   0.5000 0.1000 0.0000  plane waves:   19254
 k-point  8 :   0.5000 0.2000 0.0000  plane waves:   19250
 k-point  9 :   0.5000 0.3000 0.0000  plane waves:   19258
 k-point 10 :   0.5000 0.4000 0.0000  plane waves:   19256
 k-point 11 :   0.5000 0.5000 0.0000  plane waves:   19256
 k-point 12 :   0.5000 0.5000 0.0000  plane waves:   19256
 k-point 13 :   0.2500 0.5000 0.0000  plane waves:   19212
 k-point 14 :   0.0000 0.5000 0.0000  plane waves:   19244
 k-point 15 :   0.0000 0.5000 0.0000  plane waves:   19244
 k-point 16 :   0.0000 0.4000 0.0000  plane waves:   19258
 k-point 17 :   0.0000 0.3000 0.0000  plane waves:   19236
 k-point 18 :   0.0000 0.2000 0.0000  plane waves:   19209
 k-point 19 :   0.0000 0.1000 0.0000  plane waves:   19243
 k-point 20 :   0.0000 0.0000 0.0000  plane waves:   19277
 k-point 21 :   0.0000 0.0000 0.0000  plane waves:   19277
 k-point 22 :   0.0000 0.0000 0.2500  plane waves:   19241
 k-point 23 :   0.0000 0.0000 0.5000  plane waves:   19250
 k-point 24 :   0.0000 0.0000 0.5000  plane waves:   19250
 k-point 25 :   0.2500 0.0000 0.5000  plane waves:   19238
 k-point 26 :   0.5000 0.0000 0.5000  plane waves:   19280
 k-point 27 :   0.5000 0.0000 0.5000  plane waves:   19280
 k-point 28 :   0.5000 0.1000 0.5000  plane waves:   19260
 k-point 29 :   0.5000 0.2000 0.5000  plane waves:   19268
 k-point 30 :   0.5000 0.3000 0.5000  plane waves:   19228
 k-point 31 :   0.5000 0.4000 0.5000  plane waves:   19236
 k-point 32 :   0.5000 0.5000 0.5000  plane waves:   19256
 k-point 33 :   0.5000 0.5000 0.5000  plane waves:   19256
 k-point 34 :   0.2500 0.5000 0.5000  plane waves:   19252
 k-point 35 :   0.0000 0.5000 0.5000  plane waves:   19268
 k-point 36 :   0.0000 0.5000 0.5000  plane waves:   19268
 k-point 37 :   0.0000 0.4000 0.5000  plane waves:   19234
 k-point 38 :   0.0000 0.3000 0.5000  plane waves:   19202
 k-point 39 :   0.0000 0.2000 0.5000  plane waves:   19220
 k-point 40 :   0.0000 0.1000 0.5000  plane waves:   19238
 k-point 41 :   0.0000 0.0000 0.5000  plane waves:   19250
 k-point 42 :   0.5000 0.0000 0.0000  plane waves:   19240
 k-point 43 :   0.5000 0.0000 0.2500  plane waves:   19270
 k-point 44 :   0.5000 0.0000 0.5000  plane waves:   19280
 k-point 45 :   0.0000 0.5000 0.0000  plane waves:   19244
 k-point 46 :   0.0000 0.5000 0.2500  plane waves:   19276
 k-point 47 :   0.0000 0.5000 0.5000  plane waves:   19268
 k-point 48 :   0.5000 0.5000 0.0000  plane waves:   19256
 k-point 49 :   0.5000 0.5000 0.2500  plane waves:   19220
 k-point 50 :   0.5000 0.5000 0.5000  plane waves:   19256

 maximum and minimum number of plane-waves per node :     19280    19202

 maximum number of plane-waves:     19280
 maximum index in each direction: 
   IXMAX=   18   IYMAX=    8   IZMAX=   30
   IXMIN=  -18   IYMIN=   -8   IZMIN=  -31


 serial   3D FFT for wavefunctions
 parallel 3D FFT for charge:
    minimum data exchange during FFTs selected (reduces bandwidth)

 
 Radii for the augmentation spheres in the non-local exchange
 for species   1 augmentation radius   1.443 (default was   1.154)
       energy cutoff for augmentation   1800.0
 for species   2 augmentation radius   1.484 (default was   1.188)
       energy cutoff for augmentation   1800.0
 for species   3 augmentation radius   1.414 (default was   1.131)
       energy cutoff for augmentation   1800.0
 Maximum index for augmentation-charges in exchange         2249
  SETUP_FOCK is finished

 total amount of memory used by VASP MPI-rank0   101799. kBytes
=======================================================================

   base      :      30000. kBytes
   nonlr-proj:      15372. kBytes
   fftplans  :       2167. kBytes
   grid      :       6523. kBytes
   one-center:        311. kBytes
   HF        :        194. kBytes
   wavefun   :      47232. kBytes
 
     INWAV:  cpu time    7.2129: real time    7.3276
 initial charge density was supplied:
 number of electron     176.0000000 magnetization 
 keeping initial charge density in first step


--------------------------------------------------------------------------------------------------------


 Maximum index for non-local projection operator         2494
 Maximum index for augmentation-charges         2160 (set IRDMAX)


--------------------------------------------------------------------------------------------------------


 First call to EWALD:  gamma=   0.184
 Maximum number of real-space cells 3x 5x 2
 Maximum number of reciprocal cells 3x 2x 5

    FEWALD:  cpu time    0.0040: real time    0.0075


--------------------------------------- Iteration      1(   1)  ---------------------------------------


    POTLOK:  cpu time    0.1340: real time    0.2506
    SETDIJ:  cpu time    0.2360: real time    0.2542
    TRIAL :  cpu time  301.4882: real time  303.2992
    CORREC:  cpu time  298.6226: real time  299.7369
    --------------------------------------------
      LOOP:  cpu time  600.5067: real time  603.6047

 eigenvalue-minimisations  :     0
 total energy-change (2. order) : 0.1461725E+03  (-0.1655203E+03)
 number of electron     176.0000000 magnetization 
 augmentation part      176.0000000 magnetization 

 Free energy of the ion-electron system (eV)
  ---------------------------------------------------
  alpha Z        PSCENC =       296.55173223
  Ewald energy   TEWEN  =     -8963.34988360
  -Hartree energ DENC   =     -3439.89634090
  -exchange      EXHF   =       312.19724789
  -V(xc)+E(xc)   XCENC  =        14.04597699
  PAW double counting   =     15603.02033964   -15243.66791535
  entropy T*S    EENTRO =        -0.00000000
  eigenvalues    EBANDS =     -1075.06524950
  atomic energy  EATOM  =     12642.33662683
  ---------------------------------------------------
  free energy    TOTEN  =       146.17253423 eV

  energy without entropy =      146.17253423  energy(sigma->0) =      146.17253423
  exchange ACFDT corr.  =        -0.00000000  see jH, gK, PRB 81, 115126


--------------------------------------------------------------------------------------------------------




--------------------------------------- Iteration      1(   2)  ---------------------------------------


    TRIAL :  cpu time  302.0941: real time  303.0909
    CORREC:  cpu time  298.0757: real time  299.0722
    --------------------------------------------
      LOOP:  cpu time  600.1728: real time  602.1742

 eigenvalue-minimisations  :     0
 total energy-change (2. order) :-0.1550835E+03  (-0.3718737E+02)
 number of electron     176.0000000 magnetization 
 augmentation part      176.0000000 magnetization 

 Free energy of the ion-electron system (eV)
  ---------------------------------------------------
  alpha Z        PSCENC =       296.55173223
  Ewald energy   TEWEN  =     -8963.34988360
  -Hartree energ DENC   =     -3439.89634090
  -exchange      EXHF   =       313.06569548
  -V(xc)+E(xc)   XCENC  =        14.04597699
  PAW double counting   =     15603.02033964   -15243.66791535
  entropy T*S    EENTRO =        -0.00000000
  eigenvalues    EBANDS =     -1231.01719847
  atomic energy  EATOM  =     12642.33662683
  ---------------------------------------------------
  free energy    TOTEN  =        -8.91096716 eV

  energy without entropy =       -8.91096716  energy(sigma->0) =       -8.91096716
  exchange ACFDT corr.  =        -0.00000000  see jH, gK, PRB 81, 115126


--------------------------------------------------------------------------------------------------------




--------------------------------------- Iteration      1(   3)  ---------------------------------------


    TRIAL :  cpu time  302.5040: real time  303.1503
    CORREC:  cpu time  298.8006: real time  299.4469
    --------------------------------------------
      LOOP:  cpu time  601.3066: real time  602.6063

 eigenvalue-minimisations  :     0
 total energy-change (2. order) :-0.3724914E+02  (-0.1421267E+02)
 number of electron     176.0000000 magnetization 
 augmentation part      176.0000000 magnetization 

 Free energy of the ion-electron system (eV)
  ---------------------------------------------------
  alpha Z        PSCENC =       296.55173223
  Ewald energy   TEWEN  =     -8963.34988360
  -Hartree energ DENC   =     -3439.89634090
  -exchange      EXHF   =       314.00542961
  -V(xc)+E(xc)   XCENC  =        14.04597699
  PAW double counting   =     15603.02033964   -15243.66791535
  entropy T*S    EENTRO =        -0.00000000
  eigenvalues    EBANDS =     -1269.20607177
  atomic energy  EATOM  =     12642.33662683
  ---------------------------------------------------
  free energy    TOTEN  =       -46.16010633 eV

  energy without entropy =      -46.16010633  energy(sigma->0) =      -46.16010633
  exchange ACFDT corr.  =        -0.00000000  see jH, gK, PRB 81, 115126


--------------------------------------------------------------------------------------------------------




--------------------------------------- Iteration      1(   4)  ---------------------------------------


    TRIAL :  cpu time  302.4900: real time  303.1346
    CORREC:  cpu time  298.8756: real time  299.5865
    --------------------------------------------
      LOOP:  cpu time  601.3696: real time  602.7301

 eigenvalue-minimisations  :     0
 total energy-change (2. order) :-0.1431130E+02  (-0.4902083E+01)
 number of electron     176.0000000 magnetization 
 augmentation part      176.0000000 magnetization 

 Free energy of the ion-electron system (eV)
  ---------------------------------------------------
  alpha Z        PSCENC =       296.55173223
  Ewald energy   TEWEN  =     -8963.34988360
  -Hartree energ DENC   =     -3439.89634090
  -exchange      EXHF   =       317.02470914
  -V(xc)+E(xc)   XCENC  =        14.04597699
  PAW double counting   =     15603.02033964   -15243.66791535
  entropy T*S    EENTRO =        -0.00000000
  eigenvalues    EBANDS =     -1286.53664940
  atomic energy  EATOM  =     12642.33662683
  ---------------------------------------------------
  free energy    TOTEN  =       -60.47140442 eV

  energy without entropy =      -60.47140442  energy(sigma->0) =      -60.47140442
  exchange ACFDT corr.  =        -0.00000000  see jH, gK, PRB 81, 115126


--------------------------------------------------------------------------------------------------------




--------------------------------------- Iteration      1(   5)  ---------------------------------------


    TRIAL :  cpu time  302.4190: real time  303.4904
    CORREC:  cpu time  298.5666: real time  299.2094
    --------------------------------------------
      LOOP:  cpu time  600.9866: real time  602.7093

 eigenvalue-minimisations  :     0
 total energy-change (2. order) :-0.4913178E+01  (-0.1696790E+01)
 number of electron     176.0000000 magnetization 
 augmentation part      176.0000000 magnetization 

 Free energy of the ion-electron system (eV)
  ---------------------------------------------------
  alpha Z        PSCENC =       296.55173223
  Ewald energy   TEWEN  =     -8963.34988360
  -Hartree energ DENC   =     -3439.89634090
  -exchange      EXHF   =       318.18720047
  -V(xc)+E(xc)   XCENC  =        14.04597699
  PAW double counting   =     15603.02033964   -15243.66791535
  entropy T*S    EENTRO =        -0.00000000
  eigenvalues    EBANDS =     -1292.61231903
  atomic energy  EATOM  =     12642.33662683
  ---------------------------------------------------
  free energy    TOTEN  =       -65.38458272 eV

  energy without entropy =      -65.38458272  energy(sigma->0) =      -65.38458272
  exchange ACFDT corr.  =        -0.00000000  see jH, gK, PRB 81, 115126


--------------------------------------------------------------------------------------------------------




--------------------------------------- Iteration      1(   6)  ---------------------------------------


    TRIAL :  cpu time  302.4930: real time  303.1416
    CORREC:  cpu time  298.5176: real time  299.1628
    --------------------------------------------
      LOOP:  cpu time  601.0126: real time  602.3128

 eigenvalue-minimisations  :     0
 total energy-change (2. order) :-0.1696027E+01  (-0.4996025E+00)
 number of electron     176.0000000 magnetization 
 augmentation part      176.0000000 magnetization 

 Free energy of the ion-electron system (eV)
  ---------------------------------------------------
  alpha Z        PSCENC =       296.55173223
  Ewald energy   TEWEN  =     -8963.34988360
  -Hartree energ DENC   =     -3439.89634090
  -exchange      EXHF   =       317.99321051
  -V(xc)+E(xc)   XCENC  =        14.04597699
  PAW double counting   =     15603.02033964   -15243.66791535
  entropy T*S    EENTRO =        -0.00000000
  eigenvalues    EBANDS =     -1294.11435591
  atomic energy  EATOM  =     12642.33662683
  ---------------------------------------------------
  free energy    TOTEN  =       -67.08060956 eV

  energy without entropy =      -67.08060956  energy(sigma->0) =      -67.08060956
  exchange ACFDT corr.  =        -0.00000000  see jH, gK, PRB 81, 115126


--------------------------------------------------------------------------------------------------------




--------------------------------------- Iteration      1(   7)  ---------------------------------------


    TRIAL :  cpu time  302.3050: real time  302.9523
    CORREC:  cpu time  298.4666: real time  299.1078
    --------------------------------------------
      LOOP:  cpu time  600.7737: real time  602.0693

 eigenvalue-minimisations  :     0
 total energy-change (2. order) :-0.4985815E+00  (-0.1388134E+00)
 number of electron     176.0000000 magnetization 
 augmentation part      176.0000000 magnetization 

 Free energy of the ion-electron system (eV)
  ---------------------------------------------------
  alpha Z        PSCENC =       296.55173223
  Ewald energy   TEWEN  =     -8963.34988360
  -Hartree energ DENC   =     -3439.89634090
  -exchange      EXHF   =       317.78538946
  -V(xc)+E(xc)   XCENC  =        14.04597699
  PAW double counting   =     15603.02033964   -15243.66791535
  entropy T*S    EENTRO =        -0.00000000
  eigenvalues    EBANDS =     -1294.40511635
  atomic energy  EATOM  =     12642.33662683
  ---------------------------------------------------
  free energy    TOTEN  =       -67.57919105 eV

  energy without entropy =      -67.57919105  energy(sigma->0) =      -67.57919105
  exchange ACFDT corr.  =        -0.00000000  see jH, gK, PRB 81, 115126


--------------------------------------------------------------------------------------------------------




--------------------------------------- Iteration      1(   8)  ---------------------------------------


    TRIAL :  cpu time  302.4020: real time  303.0450
    CORREC:  cpu time  298.4666: real time  299.1085
    --------------------------------------------
      LOOP:  cpu time  600.8777: real time  602.1626

 eigenvalue-minimisations  :     0
 total energy-change (2. order) :-0.1385168E+00  (-0.3784610E-01)
 number of electron     176.0000000 magnetization 
 augmentation part      176.0000000 magnetization 

 Free energy of the ion-electron system (eV)
  ---------------------------------------------------
  alpha Z        PSCENC =       296.55173223
  Ewald energy   TEWEN  =     -8963.34988360
  -Hartree energ DENC   =     -3439.89634090
  -exchange      EXHF   =       317.70042764
  -V(xc)+E(xc)   XCENC  =        14.04597699
  PAW double counting   =     15603.02033964   -15243.66791535
  entropy T*S    EENTRO =        -0.00000000
  eigenvalues    EBANDS =     -1294.45867131
  atomic energy  EATOM  =     12642.33662683
  ---------------------------------------------------
  free energy    TOTEN  =       -67.71770784 eV

  energy without entropy =      -67.71770784  energy(sigma->0) =      -67.71770784
  exchange ACFDT corr.  =        -0.00000000  see jH, gK, PRB 81, 115126


--------------------------------------------------------------------------------------------------------




--------------------------------------- Iteration      1(   9)  ---------------------------------------


    TRIAL :  cpu time  302.4400: real time  303.0881
    CORREC:  cpu time  298.4336: real time  299.0773
    --------------------------------------------
      LOOP:  cpu time  600.8767: real time  602.1752

 eigenvalue-minimisations  :     0
 total energy-change (2. order) :-0.3780485E-01  (-0.1103782E-01)
 number of electron     176.0000000 magnetization 
 augmentation part      176.0000000 magnetization 

 Free energy of the ion-electron system (eV)
  ---------------------------------------------------
  alpha Z        PSCENC =       296.55173223
  Ewald energy   TEWEN  =     -8963.34988360
  -Hartree energ DENC   =     -3439.89634090
  -exchange      EXHF   =       317.62612539
  -V(xc)+E(xc)   XCENC  =        14.04597699
  PAW double counting   =     15603.02033964   -15243.66791535
  entropy T*S    EENTRO =        -0.00000000
  eigenvalues    EBANDS =     -1294.42217392
  atomic energy  EATOM  =     12642.33662683
  ---------------------------------------------------
  free energy    TOTEN  =       -67.75551269 eV

  energy without entropy =      -67.75551269  energy(sigma->0) =      -67.75551269
  exchange ACFDT corr.  =        -0.00000000  see jH, gK, PRB 81, 115126


--------------------------------------------------------------------------------------------------------




--------------------------------------- Iteration      1(  10)  ---------------------------------------


    TRIAL :  cpu time  302.4100: real time  303.0546
    CORREC:  cpu time  298.5726: real time  299.2114
    --------------------------------------------
      LOOP:  cpu time  600.9846: real time  602.2766

 eigenvalue-minimisations  :     0
 total energy-change (2. order) :-0.1102937E-01  (-0.2699342E-02)
 number of electron     176.0000000 magnetization 
 augmentation part      176.0000000 magnetization 

 Free energy of the ion-electron system (eV)
  ---------------------------------------------------
  alpha Z        PSCENC =       296.55173223
  Ewald energy   TEWEN  =     -8963.34988360
  -Hartree energ DENC   =     -3439.89634090
  -exchange      EXHF   =       317.64166581
  -V(xc)+E(xc)   XCENC  =        14.04597699
  PAW double counting   =     15603.02033964   -15243.66791535
  entropy T*S    EENTRO =        -0.00000000
  eigenvalues    EBANDS =     -1294.44874371
  atomic energy  EATOM  =     12642.33662683
  ---------------------------------------------------
  free energy    TOTEN  =       -67.76654206 eV

  energy without entropy =      -67.76654206  energy(sigma->0) =      -67.76654206
  exchange ACFDT corr.  =        -0.00000000  see jH, gK, PRB 81, 115126


--------------------------------------------------------------------------------------------------------




--------------------------------------- Iteration      1(  11)  ---------------------------------------


    TRIAL :  cpu time  302.4330: real time  303.0805
    CORREC:  cpu time  298.3416: real time  298.9825
    --------------------------------------------
      LOOP:  cpu time  600.7787: real time  602.0724

 eigenvalue-minimisations  :     0
 total energy-change (2. order) :-0.2698315E-02  (-0.7589453E-03)
 number of electron     176.0000000 magnetization 
 augmentation part      176.0000000 magnetization 

 Free energy of the ion-electron system (eV)
  ---------------------------------------------------
  alpha Z        PSCENC =       296.55173223
  Ewald energy   TEWEN  =     -8963.34988360
  -Hartree energ DENC   =     -3439.89634090
  -exchange      EXHF   =       317.63779101
  -V(xc)+E(xc)   XCENC  =        14.04597699
  PAW double counting   =     15603.02033964   -15243.66791535
  entropy T*S    EENTRO =        -0.00000000
  eigenvalues    EBANDS =     -1294.44756722
  atomic energy  EATOM  =     12642.33662683
  ---------------------------------------------------
  free energy    TOTEN  =       -67.76924038 eV

  energy without entropy =      -67.76924038  energy(sigma->0) =      -67.76924038
  exchange ACFDT corr.  =        -0.00000000  see jH, gK, PRB 81, 115126


--------------------------------------------------------------------------------------------------------




--------------------------------------- Iteration      1(  12)  ---------------------------------------


    TRIAL :  cpu time  302.0161: real time  303.0211
    CORREC:  cpu time  298.1947: real time  299.1887
    --------------------------------------------
      LOOP:  cpu time  600.2188: real time  602.2187

 eigenvalue-minimisations  :     0
 total energy-change (2. order) :-0.7588365E-03  (-0.2345376E-03)
 number of electron     176.0000000 magnetization 
 augmentation part      176.0000000 magnetization 

 Free energy of the ion-electron system (eV)
  ---------------------------------------------------
  alpha Z        PSCENC =       296.55173223
  Ewald energy   TEWEN  =     -8963.34988360
  -Hartree energ DENC   =     -3439.89634090
  -exchange      EXHF   =       317.63959902
  -V(xc)+E(xc)   XCENC  =        14.04597699
  PAW double counting   =     15603.02033964   -15243.66791535
  entropy T*S    EENTRO =        -0.00000000
  eigenvalues    EBANDS =     -1294.45013407
  atomic energy  EATOM  =     12642.33662683
  ---------------------------------------------------
  free energy    TOTEN  =       -67.76999921 eV

  energy without entropy =      -67.76999921  energy(sigma->0) =      -67.76999921
  exchange ACFDT corr.  =        -0.00000000  see jH, gK, PRB 81, 115126


--------------------------------------------------------------------------------------------------------




--------------------------------------- Iteration      1(  13)  ---------------------------------------


    TRIAL :  cpu time  302.2960: real time  302.9465
    CORREC:  cpu time  298.4496: real time  299.0913
    --------------------------------------------
      LOOP:  cpu time  600.7487: real time  602.0482

 eigenvalue-minimisations  :     0
 total energy-change (2. order) :-0.2345086E-03  (-0.7183058E-04)
 number of electron     176.0000000 magnetization 
 augmentation part      176.0000000 magnetization 

 Free energy of the ion-electron system (eV)
  ---------------------------------------------------
  alpha Z        PSCENC =       296.55173223
  Ewald energy   TEWEN  =     -8963.34988360
  -Hartree energ DENC   =     -3439.89634090
  -exchange      EXHF   =       317.64098688
  -V(xc)+E(xc)   XCENC  =        14.04597699
  PAW double counting   =     15603.02033964   -15243.66791535
  entropy T*S    EENTRO =        -0.00000000
  eigenvalues    EBANDS =     -1294.45175644
  atomic energy  EATOM  =     12642.33662683
  ---------------------------------------------------
  free energy    TOTEN  =       -67.77023372 eV

  energy without entropy =      -67.77023372  energy(sigma->0) =      -67.77023372
  exchange ACFDT corr.  =        -0.00000000  see jH, gK, PRB 81, 115126


--------------------------------------------------------------------------------------------------------




--------------------------------------- Iteration      1(  14)  ---------------------------------------


    TRIAL :  cpu time  302.1441: real time  302.7889
    CORREC:  cpu time  298.4606: real time  299.1021
    --------------------------------------------
      LOOP:  cpu time  600.6057: real time  601.9017

 eigenvalue-minimisations  :     0
 total energy-change (2. order) :-0.7182059E-04  (-0.2190948E-04)
 number of electron     176.0000000 magnetization 
 augmentation part      176.0000000 magnetization 

 Free energy of the ion-electron system (eV)
  ---------------------------------------------------
  alpha Z        PSCENC =       296.55173223
  Ewald energy   TEWEN  =     -8963.34988360
  -Hartree energ DENC   =     -3439.89634090
  -exchange      EXHF   =       317.64322412
  -V(xc)+E(xc)   XCENC  =        14.04597699
  PAW double counting   =     15603.02033964   -15243.66791535
  entropy T*S    EENTRO =        -0.00000000
  eigenvalues    EBANDS =     -1294.45406550
  atomic energy  EATOM  =     12642.33662683
  ---------------------------------------------------
  free energy    TOTEN  =       -67.77030554 eV

  energy without entropy =      -67.77030554  energy(sigma->0) =      -67.77030554
  exchange ACFDT corr.  =        -0.00000000  see jH, gK, PRB 81, 115126


--------------------------------------------------------------------------------------------------------




--------------------------------------- Iteration      1(  15)  ---------------------------------------


    TRIAL :  cpu time  301.9111: real time  302.9002
    CORREC:  cpu time  298.0027: real time  298.9869
    --------------------------------------------
      LOOP:  cpu time  599.9168: real time  601.8967

 eigenvalue-minimisations  :     0
 total energy-change (2. order) :-0.2190576E-04  (-0.7369926E-05)
 number of electron     176.0000000 magnetization 
 augmentation part      176.0000000 magnetization 

 Free energy of the ion-electron system (eV)
  ---------------------------------------------------
  alpha Z        PSCENC =       296.55173223
  Ewald energy   TEWEN  =     -8963.34988360
  -Hartree energ DENC   =     -3439.89634090
  -exchange      EXHF   =       317.64437792
  -V(xc)+E(xc)   XCENC  =        14.04597699
  PAW double counting   =     15603.02033964   -15243.66791535
  entropy T*S    EENTRO =        -0.00000000
  eigenvalues    EBANDS =     -1294.45524120
  atomic energy  EATOM  =     12642.33662683
  ---------------------------------------------------
  free energy    TOTEN  =       -67.77032745 eV

  energy without entropy =      -67.77032745  energy(sigma->0) =      -67.77032745
  exchange ACFDT corr.  =        -0.00000000  see jH, gK, PRB 81, 115126


--------------------------------------------------------------------------------------------------------




--------------------------------------- Iteration      1(  16)  ---------------------------------------


    TRIAL :  cpu time  302.4010: real time  303.0802
    CORREC:  cpu time  298.4366: real time  299.1063
    EDDIAG:  cpu time  298.4666: real time  299.1649
    --------------------------------------------
      LOOP:  cpu time  899.3143: real time  901.3606

 eigenvalue-minimisations  :     0
 total energy-change (2. order) :-0.7369690E-05  (-0.2597467E-05)
 number of electron     176.0000000 magnetization 
 augmentation part      176.0000000 magnetization 

 Free energy of the ion-electron system (eV)
  ---------------------------------------------------
  alpha Z        PSCENC =       296.55173223
  Ewald energy   TEWEN  =     -8963.34988360
  -Hartree energ DENC   =     -3439.89634090
  -exchange      EXHF   =       317.64483865
  -V(xc)+E(xc)   XCENC  =        14.04597699
  PAW double counting   =     15603.02033964   -15243.66791535
  entropy T*S    EENTRO =        -0.00000000
  eigenvalues    EBANDS =     -1294.45540023
  atomic energy  EATOM  =     12642.33662683
  ---------------------------------------------------
  free energy    TOTEN  =       -67.77033482 eV

  energy without entropy =      -67.77033482  energy(sigma->0) =      -67.77033482
  exchange ACFDT corr.  =        -0.00000000  see jH, gK, PRB 81, 115126


--------------------------------------------------------------------------------------------------------


  average scaling for gradient   0.8087


 average (electrostatic) potential at core
  the test charge radii are     1.1541  1.1875  1.1312
  (the norm of the test charge is              1.0000)
       1 -89.1031       2 -89.1031       3 -89.1032       4 -89.1032       5 -89.0864
       6 -89.0865       7 -89.0865       8 -89.0864       9 -88.8375      10 -88.8376
      11 -88.8376      12 -88.8375      13 -89.2535      14 -89.2535      15 -89.2535
      16 -89.2535      17 -44.9382      18 -44.9382      19 -44.9382      20 -44.9382
 
 
 
 E-fermi :   1.5266     XC(G=0):  -6.6244     alpha+bet : -8.3336


 k-point     1 :       0.0000    0.0000    0.0000
  band No.  band energies     occupation 
      1     -20.5958      2.00000
      2     -20.5953      2.00000
      3     -20.5937      2.00000
      4     -20.5932      2.00000
      5     -16.3809      2.00000
      6     -16.3807      2.00000
      7     -16.3728      2.00000
      8     -16.3728      2.00000
      9     -16.3714      2.00000
     10     -16.3713      2.00000
     11     -16.3681      2.00000
     12     -16.3680      2.00000
     13     -16.3463      2.00000
     14     -16.3462      2.00000
     15     -16.3445      2.00000
     16     -16.3444      2.00000
     17     -16.3313      2.00000
     18     -16.3312      2.00000
     19     -16.3281      2.00000
     20     -16.3281      2.00000
     21     -16.3157      2.00000
     22     -16.3156      2.00000
     23     -16.3102      2.00000
     24     -16.3101      2.00000
     25     -11.5693      2.00000
     26     -11.5366      2.00000
     27     -11.2150      2.00000
     28     -11.1052      2.00000
     29     -11.0599      2.00000
     30     -11.0575      2.00000
     31     -11.0411      2.00000
     32     -10.9977      2.00000
     33     -10.7552      2.00000
     34     -10.7048      2.00000
     35     -10.6997      2.00000
     36     -10.6156      2.00000
     37      -6.4944      2.00000
     38      -6.4940      2.00000
     39      -6.4882      2.00000
     40      -6.4807      2.00000
     41      -6.4493      2.00000
     42      -6.4036      2.00000
     43      -6.3825      2.00000
     44      -6.3790      2.00000
     45      -6.3647      2.00000
     46      -6.3638      2.00000
     47      -6.3618      2.00000
     48      -6.3606      2.00000
     49      -6.0982      2.00000
     50      -6.0652      2.00000
     51      -5.9985      2.00000
     52      -5.8482      2.00000
     53      -1.7452      2.00000
     54      -1.4664      2.00000
     55      -1.0280      2.00000
     56      -0.8672      2.00000
     57      -0.8452      2.00000
     58      -0.7481      2.00000
     59      -0.7257      2.00000
     60      -0.5901      2.00000
     61      -0.5455      2.00000
     62      -0.4507      2.00000
     63      -0.3995      2.00000
     64      -0.3357      2.00000
     65      -0.2288      2.00000
     66      -0.0595      2.00000
     67       0.0246      2.00000
     68       0.0247      2.00000
     69       0.1279      2.00000
     70       0.1457      2.00000
     71       0.1548      2.00000
     72       0.2144      2.00000
     73       0.2252      2.00000
     74       0.2582      2.00000
     75       0.3489      2.00000
     76       0.4079      2.00000
     77       0.4485      2.00000
     78       0.4704      2.00000
     79       0.5184      2.00000
     80       0.5326      2.00000
     81       0.5591      2.00000
     82       0.5974      2.00000
     83       0.6039      2.00000
     84       0.7460      2.00000
     85       0.8138      2.00000
     86       0.8545      2.00000
     87       0.9564      2.00000
     88       1.2974      2.00000
     89       4.7693      0.00000
     90       4.8151      0.00000
     91       4.8492      0.00000
     92       4.8742      0.00000
     93       5.6317      0.00000
     94       5.6861      0.00000
     95       5.7380      0.00000
     96       5.7973      0.00000
     97       5.8641      0.00000
     98       5.8670      0.00000
     99       5.9008      0.00000
    100       6.0458      0.00000
    101       6.4590      0.00000
    102       6.6178      0.00000
    103       7.2719      0.00000
    104       7.3454      0.00000
    105       7.4848      0.00000
    106       7.5635      0.00000
    107       7.6104      0.00000
    108       7.8696      0.00000
    109       7.8993      0.00000
    110       7.9132      0.00000
    111       8.1743      0.00000
    112       8.4977      0.00000
    113       8.6499      0.00000
    114       8.7286      0.00000
    115       8.8067      0.00000
    116       8.9827      0.00000
    117       9.0514      0.00000
    118       9.0564      0.00000
    119       9.0850      0.00000
    120       9.1867      0.00000

 k-point     2 :       0.0000    0.5000    0.0000
  band No.  band energies     occupation 
      1     -20.5802      2.00000
      2     -20.5802      2.00000
      3     -20.5789      2.00000
      4     -20.5789      2.00000
      5     -16.3987      2.00000
      6     -16.3987      2.00000
      7     -16.3987      2.00000
      8     -16.3987      2.00000
      9     -16.3649      2.00000
     10     -16.3649      2.00000
     11     -16.3648      2.00000
     12     -16.3648      2.00000
     13     -16.3332      2.00000
     14     -16.3332      2.00000
     15     -16.3332      2.00000
     16     -16.3332      2.00000
     17     -16.3290      2.00000
     18     -16.3290      2.00000
     19     -16.3290      2.00000
     20     -16.3290      2.00000
     21     -16.3158      2.00000
     22     -16.3158      2.00000
     23     -16.3157      2.00000
     24     -16.3157      2.00000
     25     -11.0942      2.00000
     26     -11.0941      2.00000
     27     -11.0893      2.00000
     28     -11.0892      2.00000
     29     -10.8441      2.00000
     30     -10.8440      2.00000
     31     -10.8382      2.00000
     32     -10.8382      2.00000
     33     -10.7615      2.00000
     34     -10.7615      2.00000
     35     -10.7139      2.00000
     36     -10.7139      2.00000
     37      -6.6696      2.00000
     38      -6.6695      2.00000
     39      -6.6189      2.00000
     40      -6.6189      2.00000
     41      -6.5059      2.00000
     42      -6.5059      2.00000
     43      -6.4963      2.00000
     44      -6.4963      2.00000
     45      -6.4657      2.00000
     46      -6.4656      2.00000
     47      -6.4155      2.00000
     48      -6.4155      2.00000
     49      -6.3913      2.00000
     50      -6.3912      2.00000
     51      -6.3187      2.00000
     52      -6.3187      2.00000
     53      -1.8208      2.00000
     54      -1.8208      2.00000
     55      -1.8186      2.00000
     56      -1.8186      2.00000
     57      -1.1849      2.00000
     58      -1.1849      2.00000
     59      -1.0635      2.00000
     60      -1.0635      2.00000
     61      -0.8230      2.00000
     62      -0.8230      2.00000
     63      -0.7477      2.00000
     64      -0.7477      2.00000
     65      -0.4705      2.00000
     66      -0.4705      2.00000
     67      -0.0397      2.00000
     68      -0.0397      2.00000
     69       0.0069      2.00000
     70       0.0069      2.00000
     71       0.0691      2.00000
     72       0.0691      2.00000
     73       0.1348      2.00000
     74       0.1348      2.00000
     75       0.2459      2.00000
     76       0.2459      2.00000
     77       0.2847      2.00000
     78       0.2847      2.00000
     79       0.3135      2.00000
     80       0.3135      2.00000
     81       0.4685      2.00000
[...]
     67      -0.3795      2.00000
     68      -0.3795      2.00000
     69       0.0122      2.00000
     70       0.0122      2.00000
     71       0.0122      2.00000
     72       0.0122      2.00000
     73       0.1782      2.00000
     74       0.1782      2.00000
     75       0.1782      2.00000
     76       0.1782      2.00000
     77       0.2969      2.00000
     78       0.2969      2.00000
     79       0.2969      2.00000
     80       0.2969      2.00000
     81       0.5328      2.00000
     82       0.5328      2.00000
     83       0.5328      2.00000
     84       0.5328      2.00000
     85       1.2087      2.00000
     86       1.2087      2.00000
     87       1.2087      2.00000
     88       1.2087      2.00000
     89       5.5357      0.00000
     90       5.5357      0.00000
     91       5.5357      0.00000
     92       5.5357      0.00000
     93       5.9426      0.00000
     94       5.9426      0.00000
     95       5.9426      0.00000
     96       5.9426      0.00000
     97       6.3680      0.00000
     98       6.3680      0.00000
     99       6.3680      0.00000
    100       6.3680      0.00000
    101       7.7447      0.00000
    102       7.7447      0.00000
    103       7.7447      0.00000
    104       7.7447      0.00000
    105       8.1704      0.00000
    106       8.1704      0.00000
    107       8.1704      0.00000
    108       8.1704      0.00000
    109       8.3723      0.00000
    110       8.3723      0.00000
    111       8.3726      0.00000
    112       8.3727      0.00000
    113       8.7877      0.00000
    114       8.7892      0.00000
    115       8.7911      0.00000
    116       8.7976      0.00000
    117       9.3648      0.00000
    118       9.3840      0.00000
    119       9.4524      0.00000
    120       9.4954      0.00000

 k-point    50 :       0.5000    0.5000    0.5000
  band No.  band energies     occupation 
      1     -20.5797      2.00000
      2     -20.5797      2.00000
      3     -20.5796      2.00000
      4     -20.5796      2.00000
      5     -16.3981      2.00000
      6     -16.3981      2.00000
      7     -16.3981      2.00000
      8     -16.3981      2.00000
      9     -16.3643      2.00000
     10     -16.3643      2.00000
     11     -16.3642      2.00000
     12     -16.3642      2.00000
     13     -16.3324      2.00000
     14     -16.3324      2.00000
     15     -16.3323      2.00000
     16     -16.3323      2.00000
     17     -16.3286      2.00000
     18     -16.3286      2.00000
     19     -16.3286      2.00000
     20     -16.3286      2.00000
     21     -16.3155      2.00000
     22     -16.3155      2.00000
     23     -16.3155      2.00000
     24     -16.3155      2.00000
     25     -11.0914      2.00000
     26     -11.0914      2.00000
     27     -11.0914      2.00000
     28     -11.0914      2.00000
     29     -10.8428      2.00000
     30     -10.8428      2.00000
     31     -10.8428      2.00000
     32     -10.8428      2.00000
     33     -10.7372      2.00000
     34     -10.7372      2.00000
     35     -10.7371      2.00000
     36     -10.7371      2.00000
     37      -6.6324      2.00000
     38      -6.6324      2.00000
     39      -6.6324      2.00000
     40      -6.6324      2.00000
     41      -6.5188      2.00000
     42      -6.5188      2.00000
     43      -6.5188      2.00000
     44      -6.5188      2.00000
     45      -6.4285      2.00000
     46      -6.4285      2.00000
     47      -6.4284      2.00000
     48      -6.4284      2.00000
     49      -6.3571      2.00000
     50      -6.3571      2.00000
     51      -6.3571      2.00000
     52      -6.3571      2.00000
     53      -1.5945      2.00000
     54      -1.5945      2.00000
     55      -1.5945      2.00000
     56      -1.5945      2.00000
     57      -1.3545      2.00000
     58      -1.3545      2.00000
     59      -1.3545      2.00000
     60      -1.3545      2.00000
     61      -0.8274      2.00000
     62      -0.8274      2.00000
     63      -0.8274      2.00000
     64      -0.8274      2.00000
     65      -0.4602      2.00000
     66      -0.4602      2.00000
     67      -0.4602      2.00000
     68      -0.4602      2.00000
     69       0.0464      2.00000
     70       0.0464      2.00000
     71       0.0464      2.00000
     72       0.0464      2.00000
     73       0.1901      2.00000
     74       0.1901      2.00000
     75       0.1901      2.00000
     76       0.1901      2.00000
     77       0.3539      2.00000
     78       0.3539      2.00000
     79       0.3539      2.00000
     80       0.3539      2.00000
     81       0.4632      2.00000
     82       0.4632      2.00000
     83       0.4632      2.00000
     84       0.4632      2.00000
     85       1.2180      2.00000
     86       1.2180      2.00000
     87       1.2180      2.00000
     88       1.2180      2.00000
     89       5.5322      0.00000
     90       5.5322      0.00000
     91       5.5322      0.00000
     92       5.5322      0.00000
     93       5.9178      0.00000
     94       5.9178      0.00000
     95       5.9178      0.00000
     96       5.9178      0.00000
     97       6.4065      0.00000
     98       6.4065      0.00000
     99       6.4065      0.00000
    100       6.4065      0.00000
    101       7.7325      0.00000
    102       7.7325      0.00000
    103       7.7325      0.00000
    104       7.7325      0.00000
    105       8.1783      0.00000
    106       8.1783      0.00000
    107       8.1783      0.00000
    108       8.1783      0.00000
    109       8.3293      0.00000
    110       8.3294      0.00000
    111       8.3310      0.00000
    112       8.3337      0.00000
    113       8.8650      0.00000
    114       8.8690      0.00000
    115       8.8783      0.00000
    116       8.9153      0.00000
    117       9.3520      0.00000
    118       9.4174      0.00000
    119       9.5117      0.00000
    120       9.5672      0.00000


--------------------------------------------------------------------------------------------------------


 soft charge-density along one line, spin component           1
         0         1         2         3         4         5         6         7         8         9
 total charge-density along one line
 
 pseudopotential strength for first ion, spin component:           1
-13.782  -0.003   0.000   0.000  -0.000   3.083   0.002  -0.000
 -0.003 -13.776   0.000  -0.000   0.000   0.002   3.079  -0.000
  0.000   0.000 -13.774  -0.008   0.005  -0.000  -0.000   3.078
  0.000  -0.000  -0.008 -13.780  -0.007  -0.000   0.000   0.005
 -0.000   0.000   0.005  -0.007 -13.788   0.000  -0.000  -0.003
  3.083   0.002  -0.000  -0.000   0.000   6.486  -0.002   0.000
  0.002   3.079  -0.000   0.000  -0.000  -0.002   6.490   0.000
 -0.000  -0.000   3.078   0.005  -0.003   0.000   0.000   6.490
 -0.000   0.000   0.005   3.082   0.005   0.000  -0.000  -0.002
  0.000  -0.000  -0.003   0.005   3.088  -0.000   0.000   0.001
 -0.000   0.000  -0.000   0.000   0.001   0.000  -0.000  -0.002
  0.000  -0.000  -0.000   0.001  -0.001  -0.000   0.000   0.003
  0.004  -0.004   0.000  -0.000   0.000  -0.001   0.000   0.000
 -0.000  -0.000  -0.005   0.004   0.000  -0.000  -0.000   0.001
 -0.000  -0.000  -0.002  -0.004   0.004  -0.000  -0.000   0.000
  0.007  -0.008   0.000  -0.000   0.000  -0.000  -0.000   0.000
 -0.000  -0.000  -0.009   0.007   0.000  -0.000  -0.000   0.000
 -0.000  -0.000  -0.004  -0.008   0.007  -0.000  -0.000  -0.000
 total augmentation occupancy for first ion, spin component:           1
  2.000   0.000   0.000   0.000   0.000   0.000   0.000   0.000   0.000   0.000   0.000   0.000   0.000   0.000   0.000   0.000
  0.000   2.000   0.000   0.000   0.000   0.000   0.000   0.000   0.000   0.000   0.000   0.000   0.000   0.000   0.000   0.000
  0.000   0.000   2.000   0.000   0.000   0.000   0.000   0.000   0.000   0.000   0.000   0.000   0.000   0.000   0.000   0.000
  0.000   0.000   0.000   2.000   0.000   0.000   0.000   0.000   0.000   0.000   0.000   0.000   0.000   0.000   0.000   0.000
  0.000   0.000   0.000   0.000   2.000   0.000   0.000   0.000   0.000   0.000   0.000   0.000   0.000   0.000   0.000   0.000
  0.000   0.000   0.000   0.000   0.000   0.000   0.000   0.000   0.000   0.000   0.000   0.000   0.000   0.000   0.000   0.000
  0.000   0.000   0.000   0.000   0.000   0.000   0.000   0.000   0.000   0.000   0.000   0.000   0.000   0.000   0.000   0.000
  0.000   0.000   0.000   0.000   0.000   0.000   0.000   0.000   0.000   0.000   0.000   0.000   0.000   0.000   0.000   0.000
  0.000   0.000   0.000   0.000   0.000   0.000   0.000   0.000   0.000   0.000   0.000   0.000   0.000   0.000   0.000   0.000
  0.000   0.000   0.000   0.000   0.000   0.000   0.000   0.000   0.000   0.000   0.000   0.000   0.000   0.000   0.000   0.000
  0.000   0.000   0.000   0.000   0.000   0.000   0.000   0.000   0.000   0.000   2.000   0.000   0.000   0.000   0.000   0.000
  0.000   0.000   0.000   0.000   0.000   0.000   0.000   0.000   0.000   0.000   0.000   0.000   0.000   0.000   0.000   0.000
  0.000   0.000   0.000   0.000   0.000   0.000   0.000   0.000   0.000   0.000   0.000   0.000   0.667   0.000   0.000   0.000
  0.000   0.000   0.000   0.000   0.000   0.000   0.000   0.000   0.000   0.000   0.000   0.000   0.000   0.667   0.000   0.000
  0.000   0.000   0.000   0.000   0.000   0.000   0.000   0.000   0.000   0.000   0.000   0.000   0.000   0.000   0.667   0.000
  0.000   0.000   0.000   0.000   0.000   0.000   0.000   0.000   0.000   0.000   0.000   0.000   0.000   0.000   0.000   0.000
  0.000   0.000   0.000   0.000   0.000   0.000   0.000   0.000   0.000   0.000   0.000   0.000   0.000   0.000   0.000   0.000
  0.000   0.000   0.000   0.000   0.000   0.000   0.000   0.000   0.000   0.000   0.000   0.000   0.000   0.000   0.000   0.000


------------------------ aborting loop because EDIFF is reached ----------------------------------------


 


 total charge     
 
# of ion       s       p       d       tot
------------------------------------------
    1        1.527   0.445   9.842  11.814
    2        1.527   0.445   9.842  11.814
    3        1.527   0.445   9.842  11.814
    4        1.527   0.445   9.842  11.814
    5        1.506   2.872   0.007   4.385
    6        1.506   2.872   0.007   4.385
    7        1.506   2.872   0.007   4.385
    8        1.506   2.872   0.007   4.385
    9        1.501   2.908   0.005   4.414
   10        1.501   2.908   0.005   4.414
   11        1.501   2.908   0.005   4.414
   12        1.501   2.908   0.005   4.414
   13        1.507   2.865   0.009   4.381
   14        1.507   2.865   0.009   4.381
   15        1.507   2.865   0.009   4.381
   16        1.507   2.865   0.009   4.381
   17        2.290   4.722   0.024   7.036
   18        2.290   4.722   0.024   7.036
   19        2.290   4.722   0.024   7.036
   20        2.290   4.722   0.024   7.036
--------------------------------------------------
tot         33.323  55.246  39.550 128.120
 
    CHARGE:  cpu time    0.0520: real time    0.0832
    FORLOC:  cpu time    0.0040: real time    0.0056
    FORHF :  cpu time  381.8969: real time  383.4781
    FORNL :  cpu time    1.1538: real time    1.1691
    FORCOR:  cpu time    0.3289: real time    0.3380
    FORHAR:  cpu time    0.0130: real time    0.0202
    OFIELD:  cpu time    0.0000: real time    0.0009

 VOLUME and BASIS-vectors are now :
 -----------------------------------------------------------------------------
  energy-cutoff  :      450.00
  volume of cell :      887.78
      direct lattice vectors                 reciprocal lattice vectors
    10.434200287  0.000000000  0.000000000     0.095838682  0.000000000  0.000000000
     0.000000000  4.790500164  0.000000000     0.000000000  0.208746470  0.000000000
     0.000000000  0.000000000 17.760999680     0.000000000  0.000000000  0.056303137

  length of vectors
    10.434200287  4.790500164 17.760999680     0.095838682  0.208746470  0.056303137


 FORCES acting on ions
    electron-ion (+dipol)            ewald-force                    non-local-force                 convergence-correction
 -----------------------------------------------------------------------------------------------
   -.630E+02 0.566E-03 0.531E+02   0.607E+02 -.183E-04 -.506E+02   0.187E+01 0.339E-20 -.214E+01   0.264E+00 -.271E-03 -.158E+00
   0.630E+02 -.284E-03 -.531E+02   -.607E+02 0.183E-04 0.506E+02   -.187E+01 -.136E-19 0.214E+01   -.266E+00 -.465E-04 0.155E+00
   0.630E+02 -.341E-03 0.531E+02   -.607E+02 0.183E-04 -.506E+02   -.187E+01 -.678E-20 -.214E+01   -.264E+00 -.653E-05 -.152E+00
   -.630E+02 0.506E-03 -.531E+02   0.607E+02 -.183E-04 0.506E+02   0.187E+01 0.339E-20 0.214E+01   0.264E+00 -.252E-03 0.158E+00
   0.923E+02 0.422E-05 -.481E+02   -.940E+02 -.117E-04 0.486E+02   0.172E+01 -.424E-20 -.543E+00   -.974E-01 0.558E-04 0.294E-01
   -.923E+02 -.456E-04 0.481E+02   0.940E+02 0.117E-04 -.486E+02   -.172E+01 0.508E-20 0.543E+00   0.977E-01 -.361E-04 -.286E-01
   -.923E+02 -.481E-04 -.481E+02   0.940E+02 0.117E-04 0.486E+02   -.172E+01 0.339E-20 -.543E+00   0.976E-01 -.368E-04 0.288E-01
   0.923E+02 0.498E-04 0.481E+02   -.940E+02 -.117E-04 -.486E+02   0.172E+01 -.339E-20 0.543E+00   -.974E-01 0.464E-04 -.292E-01
   -.397E+02 -.810E-04 0.767E+02   0.405E+02 -.489E-05 -.781E+02   -.865E+00 0.169E-20 0.150E+01   0.328E-01 0.724E-05 -.679E-01
   0.397E+02 0.429E-04 -.767E+02   -.405E+02 0.489E-05 0.781E+02   0.865E+00 -.847E-21 -.150E+01   -.328E-01 0.127E-05 0.675E-01
   0.397E+02 0.600E-04 0.767E+02   -.405E+02 0.489E-05 -.781E+02   0.865E+00 0.000E+00 0.150E+01   -.329E-01 -.111E-04 -.677E-01
   -.397E+02 -.388E-04 -.767E+02   0.405E+02 -.489E-05 0.781E+02   -.865E+00 0.169E-20 -.150E+01   0.327E-01 0.287E-05 0.677E-01
   -.651E+02 0.120E-03 -.122E+03   0.662E+02 -.969E-05 0.123E+03   -.123E+01 -.169E-20 -.143E+01   0.842E-01 -.386E-04 0.289E+00
   0.651E+02 -.168E-03 0.122E+03   -.662E+02 0.969E-05 -.123E+03   0.123E+01 0.169E-20 0.143E+01   -.844E-01 0.527E-04 -.289E+00
   0.651E+02 -.133E-03 -.122E+03   -.662E+02 0.969E-05 0.123E+03   0.123E+01 0.191E-20 -.143E+01   -.844E-01 0.673E-04 0.289E+00
   -.651E+02 0.153E-03 0.122E+03   0.662E+02 -.969E-05 -.123E+03   -.123E+01 -.212E-20 0.143E+01   0.843E-01 -.660E-04 -.289E+00
   -.193E+00 0.368E-04 -.122E+02   0.290E+00 -.548E-05 0.123E+02   -.103E+00 -.397E-22 -.110E+00   0.595E-02 0.162E-06 0.385E-01
   0.193E+00 -.717E-04 0.122E+02   -.290E+00 0.548E-05 -.123E+02   0.103E+00 0.000E+00 0.110E+00   -.578E-02 0.159E-04 -.390E-01
   0.193E+00 0.278E-04 -.122E+02   -.290E+00 0.548E-05 0.123E+02   0.103E+00 0.000E+00 -.110E+00   -.570E-02 -.309E-04 0.387E-01
   -.192E+00 0.495E-05 0.122E+02   0.290E+00 -.548E-05 -.123E+02   -.103E+00 0.000E+00 0.110E+00   0.575E-02 0.133E-04 -.386E-01
 -----------------------------------------------------------------------------------------------
   0.209E-02 0.361E-03 -.250E-02   0.422E-14 0.171E-14 0.462E-13   0.208E-15 -.104E-19 0.139E-16   -.220E-02 -.532E-03 0.302E-02
 
 
 POSITION                                       TOTAL-FORCE (eV/Angst)
 -----------------------------------------------------------------------------------
      1.67927      1.19763      7.79733         0.034161     -0.000000     -0.060755
      8.75493      3.59288      9.96367        -0.034161     -0.000000      0.060755
      3.53783      3.59288     16.67783        -0.034161     -0.000000     -0.060755
      6.89637      1.19763      1.08317         0.034161     -0.000000      0.060755
      1.66861      1.19763      0.03521         0.065467     -0.000000     -0.060333
      8.76559      3.59288     17.72579        -0.065467      0.000000      0.060333
      3.54849      3.59288      8.91571        -0.065467      0.000000     -0.060333
      6.88571      1.19763      8.84529         0.065467     -0.000000      0.060333
      3.13268      1.19763      5.06151        -0.074507      0.000000      0.097546
      7.30152      3.59288     12.69949         0.074507     -0.000000     -0.097546
      2.08442      3.59288     13.94201         0.074507     -0.000000      0.097546
      8.34978      1.19763      3.81899        -0.074507      0.000000     -0.097546
      0.35353      1.19763     10.90043        -0.077754     -0.000000     -0.189881
     10.08067      3.59288      6.86057         0.077754     -0.000000      0.189881
      4.86357      3.59288      2.01993         0.077754     -0.000000     -0.189881
      5.57063      1.19763     15.74107        -0.077754      0.000000      0.189881
      4.35243      1.19763     11.93416         0.001498      0.000000      0.006536
      6.08177      3.59288      5.82684        -0.001498     -0.000000     -0.006536
      0.86467      3.59288      3.05366        -0.001498      0.000000      0.006536
      9.56953      1.19763     14.70734         0.001498     -0.000000     -0.006536
 -----------------------------------------------------------------------------------
    total drift:                               -0.000107     -0.000171      0.000514


--------------------------------------------------------------------------------------------------------



  FREE ENERGIE OF THE ION-ELECTRON SYSTEM (eV)
  ---------------------------------------------------
  free  energy   TOTEN  =       -67.77033482 eV

  energy  without entropy=      -67.77033482  energy(sigma->0) =      -67.77033482
 


--------------------------------------------------------------------------------------------------------


    POTLOK:  cpu time    0.3449: real time    0.3503


--------------------------------------------------------------------------------------------------------


     LOOP+:  cpu time10294.5210: real time10322.1258
    4ORBIT:  cpu time    0.0000: real time    0.0000
 


 total charge     
 
# of ion       s       p       d       tot
------------------------------------------
    1        1.527   0.445   9.842  11.814
    2        1.527   0.445   9.842  11.814
    3        1.527   0.445   9.842  11.814
    4        1.527   0.445   9.842  11.814
    5        1.506   2.872   0.007   4.385
    6        1.506   2.872   0.007   4.385
    7        1.506   2.872   0.007   4.385
    8        1.506   2.872   0.007   4.385
    9        1.501   2.908   0.005   4.414
   10        1.501   2.908   0.005   4.414
   11        1.501   2.908   0.005   4.414
   12        1.501   2.908   0.005   4.414
   13        1.507   2.865   0.009   4.381
   14        1.507   2.865   0.009   4.381
   15        1.507   2.865   0.009   4.381
   16        1.507   2.865   0.009   4.381
   17        2.290   4.722   0.024   7.036
   18        2.290   4.722   0.024   7.036
   19        2.290   4.722   0.024   7.036
   20        2.290   4.722   0.024   7.036
--------------------------------------------------
tot         33.323  55.246  39.550 128.120
 

 total amount of memory used by VASP MPI-rank0   104172. kBytes
=======================================================================

   base      :      30000. kBytes
   nonlr-proj:      17745. kBytes
   fftplans  :       2167. kBytes
   grid      :       6523. kBytes
   one-center:        311. kBytes
   HF        :        194. kBytes
   wavefun   :      47232. kBytes
 
  
  
 General timing and accounting informations for this job:
 ========================================================
  
                  Total CPU time used (sec):    10364.384
                            User time (sec):    10335.633
                          System time (sec):       28.751
                         Elapsed time (sec):    10393.892
  
                   Maximum memory used (kb):      899860.
                   Average memory used (kb):           0.
  
                          Minor page faults:      5110964
                          Major page faults:          216
                 Voluntary context switches:         8987
