 vasp.5.4.4.18Apr17-6-g9f103f2a35 (build Aug 19 2019 13:15:05) complex          
  
 executed on             LinuxIFC date 2020.05.13  17:04:46
 running on   48 total cores
 distrk:  each k-point on   48 cores,    1 groups
 distr:  one band on NCORES_PER_BAND=   2 cores,   24 groups


--------------------------------------------------------------------------------------------------------


 INCAR:
 POTCAR:    PAW_PBE Pb_d 06Sep2000                
 POTCAR:    PAW_PBE I 08Apr2002                   
 POTCAR:    PAW_PBE Cs_sv 08Apr2002               

 ----------------------------------------------------------------------------- 
|                                                                             |
|           W    W    AA    RRRRR   N    N  II  N    N   GGGG   !!!           |
|           W    W   A  A   R    R  NN   N  II  NN   N  G    G  !!!           |
|           W    W  A    A  R    R  N N  N  II  N N  N  G       !!!           |
|           W WW W  AAAAAA  RRRRR   N  N N  II  N  N N  G  GGG   !            |
|           WW  WW  A    A  R   R   N   NN  II  N   NN  G    G                |
|           W    W  A    A  R    R  N    N  II  N    N   GGGG   !!!           |
|                                                                             |
|      For optimal performance we recommend to set                            |
|        NCORE= 4 - approx SQRT( number of cores)                             |
|      NCORE specifies how many cores store one orbital (NPAR=cpu/NCORE).     |
|      This setting can  greatly improve the performance of VASP for DFT.     |
|      The default,   NCORE=1            might be grossly inefficient         |
|      on modern multi-core architectures or massively parallel machines.     |
|      Do your own testing !!!!                                               |
|      Unfortunately you need to use the default for GW and RPA calculations. |
|      (for HF NCORE is supported but not extensively tested yet)             |
|                                                                             |
 ----------------------------------------------------------------------------- 

 POTCAR:    PAW_PBE Pb_d 06Sep2000                
   VRHFIN =Pb:                                                                  
   LEXCH  = PE                                                                  
   EATOM  =  1661.6185 eV,  122.1255 Ry                                         
                                                                                
   TITEL  = PAW_PBE Pb_d 06Sep2000                                              
   LULTRA =        F    use ultrasoft PP ?                                      
   IUNSCR =        1    unscreen: 0-lin 1-nonlin 2-no                           
   RPACOR =    2.200    partial core radius                                     
   POMASS =  207.200; ZVAL   =   14.000    mass and valenz                      
   RCORE  =    2.500    outmost cutoff radius                                   
   RWIGS  =    3.260; RWIGS  =    1.725    wigner-seitz radius (au A)           
   ENMAX  =  237.835; ENMIN  =  178.376 eV                                      
   ICORE  =        3    local potential                                         
   LCOR   =        T    correct aug charges                                     
   LPAW   =        T    paw PP                                                  
   EAUG   =  391.914                                                            
   DEXC   =    0.000                                                            
   RMAX   =    2.565    core radius for proj-oper                               
   RAUG   =    1.300    factor for augmentation sphere                          
   RDEP   =    2.643    radius for radial grids                                 
   RDEPT  =    2.092    core radius for aug-charge                              
                                                                                
   Atomic configuration                                                         
   16 entries                                                                   
     n  l   j            E        occ.                                          
     1  0  0.50    -88091.8466   2.0000                                         
     2  0  0.50    -15753.4197   2.0000                                         
     2  1  1.50    -13508.1797   6.0000                                         
     3  0  0.50     -3781.7194   2.0000                                         
     3  1  1.50     -3138.2529   6.0000                                         
     3  2  2.50     -2483.2977  10.0000                                         
     4  0  0.50      -856.2895   2.0000                                         
     4  1  1.50      -645.4942   6.0000                                         
     4  2  2.50      -401.8768  10.0000                                         
     4  3  3.50      -132.9059  14.0000                                         
     5  0  0.50      -144.0950   2.0000                                         
     5  1  1.50       -85.7879   6.0000                                         
     5  2  2.50       -21.1769  10.0000                                         
     6  0  0.50       -12.0372   2.0000                                         
     6  1  1.50        -3.4971   2.0000                                         
     5  3  2.50        -2.7212   0.0000                                         
   Description                                                                  
     l       E           TYP  RCUT    TYP  RCUT                                 
     2    -21.1768523     23  2.500                                             
     2      1.3605826     23  2.500                                             
     0    -12.0371562     23  2.500                                             
     0     13.6058260     23  2.500                                             
     1     -3.4971339     23  2.500                                             
     1     13.6058260     23  2.500                                             
     3     -1.3605826      7  2.500                                             
  local pseudopotential read in
  partial core-charges read in
  partial kinetic energy density read in
  atomic valenz-charges read in
  non local Contribution for L=           2  read in
    real space projection operators read in
  non local Contribution for L=           2  read in
    real space projection operators read in
  non local Contribution for L=           0  read in
    real space projection operators read in
  non local Contribution for L=           0  read in
    real space projection operators read in
  non local Contribution for L=           1  read in
    real space projection operators read in
  non local Contribution for L=           1  read in
    real space projection operators read in
    PAW grid and wavefunctions read in
 
   number of l-projection  operators is LMAX  =           6
   number of lm-projection operators is LMMAX =          18
 
 POTCAR:    PAW_PBE I 08Apr2002                   
   VRHFIN =I : s2p5                                                             
   LEXCH  = PE                                                                  
   EATOM  =   315.8678 eV,   23.2156 Ry                                         
                                                                                
   TITEL  = PAW_PBE I 08Apr2002                                                 
   LULTRA =        F    use ultrasoft PP ?                                      
   IUNSCR =        1    unscreen: 0-lin 1-nonlin 2-no                           
   RPACOR =    2.200    partial core radius                                     
   POMASS =  126.904; ZVAL   =    7.000    mass and valenz                      
   RCORE  =    2.300    outmost cutoff radius                                   
   RWIGS  =    2.810; RWIGS  =    1.487    wigner-seitz radius (au A)           
   ENMAX  =  175.647; ENMIN  =  131.735 eV                                      
   ICORE  =        3    local potential                                         
   LCOR   =        T    correct aug charges                                     
   LPAW   =        T    paw PP                                                  
   EAUG   =  370.139                                                            
   DEXC   =    0.000                                                            
   RMAX   =    2.359    core radius for proj-oper                               
   RAUG   =    1.300    factor for augmentation sphere                          
   RDEP   =    2.392    radius for radial grids                                 
   RDEPT  =    2.170    core radius for aug-charge                              
                                                                                
   Atomic configuration                                                         
   13 entries                                                                   
     n  l   j            E        occ.                                          
     1  0  0.50    -32976.3739   2.0000                                         
     2  0  0.50     -5094.5933   2.0000                                         
     2  1  1.50     -4572.0131   6.0000                                         
     3  0  0.50     -1028.2813   2.0000                                         
     3  1  1.50      -859.0250   6.0000                                         
     3  2  2.50      -605.7620  10.0000                                         
     4  0  0.50      -180.5540   2.0000                                         
     4  1  1.50      -127.5306   6.0000                                         
     4  2  2.50       -50.2720  10.0000                                         
     5  0  0.50       -17.4058   2.0000                                         
     5  1  0.50        -7.0851   5.0000                                         
     5  2  1.50        -7.0750   0.0000                                         
     4  3  2.50        -7.0750   0.0000                                         
   Description                                                                  
     l       E           TYP  RCUT    TYP  RCUT                                 
     0    -17.4058016     23  2.300                                             
     0    -18.7663842     23  2.300                                             
     1     -7.0850686     23  2.300                                             
     1     -4.2150896     23  2.300                                             
     2     -7.0750295     23  2.300                                             
     3     -1.3605826     23  2.300                                             
  local pseudopotential read in
  partial core-charges read in
  partial kinetic energy density read in
  atomic valenz-charges read in
  non local Contribution for L=           0  read in
    real space projection operators read in
  non local Contribution for L=           0  read in
    real space projection operators read in
  non local Contribution for L=           1  read in
    real space projection operators read in
  non local Contribution for L=           1  read in
    real space projection operators read in
  non local Contribution for L=           2  read in
    real space projection operators read in
    PAW grid and wavefunctions read in
 
   number of l-projection  operators is LMAX  =           5
   number of lm-projection operators is LMMAX =          13
 
 POTCAR:    PAW_PBE Cs_sv 08Apr2002               
   VRHFIN =Cs: 5s5p6s                                                           
   LEXCH  = PE                                                                  
   EATOM  =   555.6835 eV,   40.8416 Ry                                         
                                                                                
   TITEL  = PAW_PBE Cs_sv 08Apr2002                                             
   LULTRA =        F    use ultrasoft PP ?                                      
   IUNSCR =        1    unscreen: 0-lin 1-nonlin 2-no                           
   RPACOR =    2.200    partial core radius                                     
   POMASS =  132.900; ZVAL   =    9.000    mass and valenz                      
   RCORE  =    2.500    outmost cutoff radius                                   
   RWIGS  =    2.500; RWIGS  =    1.323    wigner-seitz radius (au A)           
   ENMAX  =  220.318; ENMIN  =  165.238 eV                                      
   RCLOC  =    2.207    cutoff for local pot                                    
   LCOR   =        T    correct aug charges                                     
   LPAW   =        T    paw PP                                                  
   EAUG   =  407.933                                                            
   DEXC   =    0.000                                                            
   RMAX   =    2.554    core radius for proj-oper                               
   RAUG   =    1.300    factor for augmentation sphere                          
   RDEP   =    2.590    radius for radial grids                                 
   RDEPT  =    2.117    core radius for aug-charge                              
                                                                                
   Atomic configuration                                                         
   13 entries                                                                   
     n  l   j            E        occ.                                          
     1  0  0.50    -35790.1377   2.0000                                         
     2  0  0.50     -5613.6201   2.0000                                         
     2  1  1.50     -5035.0101   6.0000                                         
     3  0  0.50     -1167.0767   2.0000                                         
     3  1  1.50      -980.9754   6.0000                                         
     3  2  2.50      -708.0703  10.0000                                         
     4  0  0.50      -220.2386   2.0000                                         
     4  1  1.50      -160.7596   6.0000                                         
     4  2  2.50       -74.2354  10.0000                                         
     5  0  0.50       -26.7287   2.0000                                         
     6  0  0.50        -2.0862   1.0000                                         
     5  1  1.50       -13.5159   6.0000                                         
     5  2  2.50        -0.4136   0.0000                                         
   Description                                                                  
     l       E           TYP  RCUT    TYP  RCUT                                 
     0    -26.7287425     23  1.900                                             
     0     -2.0862306     23  1.900                                             
     1    -13.5158719     23  2.500                                             
     1     -2.7211652     23  2.500                                             
     2     -0.4136171     23  2.500                                             
  local pseudopotential read in
  partial core-charges read in
  partial kinetic energy density read in
  atomic valenz-charges read in
  non local Contribution for L=           0  read in
    real space projection operators read in
  non local Contribution for L=           0  read in
    real space projection operators read in
  non local Contribution for L=           1  read in
    real space projection operators read in
  non local Contribution for L=           1  read in
    real space projection operators read in
  non local Contribution for L=           2  read in
    real space projection operators read in
    PAW grid and wavefunctions read in
 
   number of l-projection  operators is LMAX  =           5
   number of lm-projection operators is LMMAX =          13
 

 ----------------------------------------------------------------------------- 
|                                                                             |
|  ADVICE TO THIS USER RUNNING 'VASP/VAMP'   (HEAR YOUR MASTER'S VOICE ...):  |
|                                                                             |
|      You have a (more or less) 'large supercell' and for larger cells       |
|      it might be more efficient to use real space projection opertators     |
|      So try LREAL= Auto  in the INCAR   file.                               |
|      Mind:          For very  accurate calculation you might also keep the  |
|      reciprocal projection scheme          (i.e. LREAL=.FALSE.)             |
|                                                                             |
 ----------------------------------------------------------------------------- 

  PAW_PBE Pb_d 06Sep2000                :
 energy of atom  1       EATOM=-1661.6185
 kinetic energy error for atom=    0.0037 (will be added to EATOM!!)
  PAW_PBE I 08Apr2002                   :
 energy of atom  2       EATOM= -315.8678
 kinetic energy error for atom=    0.0009 (will be added to EATOM!!)
  PAW_PBE Cs_sv 08Apr2002               :
 energy of atom  3       EATOM= -555.6835
 kinetic energy error for atom=    0.0016 (will be added to EATOM!!)
 
 
 POSCAR: delta-Cesium_Lead_Iodide                
  positions in direct lattice
  velocities in cartesian coordinates
 exchange correlation table for  LEXCH =        8
   RHO(1)=    0.500       N(1)  =     2000
   RHO(2)=  100.500       N(2)  =     4000
 


--------------------------------------------------------------------------------------------------------


 ion  position               nearest neighbor table
   1  0.161  0.250  0.439-   9 3.10   7 3.24   7 3.24  14 3.28  14 3.28  13 3.37
   2  0.839  0.750  0.561-  10 3.10   8 3.24   8 3.24  13 3.28  13 3.28  14 3.37
   3  0.339  0.750  0.939-  11 3.10   5 3.24   5 3.24  16 3.28  16 3.28  15 3.37
   4  0.661  0.250  0.061-  12 3.10   6 3.24   6 3.24  15 3.28  15 3.28  16 3.37
   5  0.160  0.250  0.002-   3 3.24   3 3.24
   6  0.840  0.750  0.998-   4 3.24   4 3.24
   7  0.340  0.750  0.502-   1 3.24   1 3.24
   8  0.660  0.250  0.498-   2 3.24   2 3.24
   9  0.300  0.250  0.285-   1 3.10
  10  0.700  0.750  0.715-   2 3.10
  11  0.200  0.750  0.785-   3 3.10
  12  0.800  0.250  0.215-   4 3.10
  13  0.034  0.250  0.614-   2 3.28   2 3.28   1 3.37
  14  0.966  0.750  0.386-   1 3.28   1 3.28   2 3.37
  15  0.466  0.750  0.114-   4 3.28   4 3.28   3 3.37
  16  0.534  0.250  0.886-   3 3.28   3 3.28   4 3.37
  17  0.417  0.250  0.672-
  18  0.583  0.750  0.328-
  19  0.083  0.750  0.172-
  20  0.917  0.250  0.828-
 
  LATTYP: Found a simple orthorhombic cell.
 ALAT       =     4.7905001640
 B/A-ratio  =     2.1781024798
 C/A-ratio  =     3.7075459914
  
  Lattice vectors:
  
 A1 = (   0.0000000000,  -4.7905001640,   0.0000000000)
 A2 = ( -10.4342002869,   0.0000000000,   0.0000000000)
 A3 = (   0.0000000000,   0.0000000000, -17.7609996796)


Analysis of symmetry for initial positions (statically):
=====================================================================
 Subroutine PRICEL returns:
 Original cell was already a primitive cell.
 

 Routine SETGRP: Setting up the symmetry group for a 
 simple orthorhombic supercell.


 Subroutine GETGRP returns: Found  8 space group operations
 (whereof  2 operations were pure point group operations)
 out of a pool of  8 trial point group operations.


The static configuration has the point symmetry S_2 .
 The point group associated with its full space group is D_2h.


Analysis of symmetry for dynamics (positions and initial velocities):
=====================================================================
 Subroutine PRICEL returns:
 Original cell was already a primitive cell.
 

 Routine SETGRP: Setting up the symmetry group for a 
 simple orthorhombic supercell.


 Subroutine GETGRP returns: Found  8 space group operations
 (whereof  2 operations were pure point group operations)
 out of a pool of  8 trial point group operations.


The dynamic configuration has the point symmetry S_2 .
 The point group associated with its full space group is D_2h.


 Subroutine INISYM returns: Found  8 space group operations
 (whereof  2 operations are pure point group operations),
 and found     1 'primitive' translations

 
 
 KPOINTS: K-Mesh Generated with KP-Resolved Value 

Automatic generation of k-mesh.
Space group operators:
 irot       det(A)        alpha          n_x          n_y          n_z        tau_x        tau_y        tau_z
    1     1.000000     0.000000     1.000000     0.000000     0.000000     0.000000     0.000000     0.000000
    2    -1.000000     0.000000     1.000000     0.000000     0.000000     0.000000     0.000000     0.000000
    3     1.000000   180.000000     0.000000     0.000000     1.000000    -0.500000    -0.000000    -0.500000
    4    -1.000000   180.000000     0.000000     0.000000     1.000000    -0.500000     0.000000    -0.500000
    5     1.000000   180.000000     1.000000     0.000000     0.000000    -0.500000    -0.500000    -0.500000
    6    -1.000000   180.000000     1.000000     0.000000     0.000000    -0.500000    -0.500000    -0.500000
    7     1.000000   180.000000     0.000000     1.000000     0.000000     0.000000    -0.500000     0.000000
    8    -1.000000   180.000000     0.000000     1.000000     0.000000     0.000000    -0.500000     0.000000
 
 Subroutine IBZKPT returns following result:
 ===========================================
 
 Found     56 irreducible k-points:
 
 Following reciprocal coordinates:
            Coordinates               Weight
  0.000000  0.000000  0.000000      1.000000
  0.166667  0.000000  0.000000      2.000000
  0.333333  0.000000  0.000000      2.000000
  0.500000  0.000000  0.000000      1.000000
  0.000000  0.083333  0.000000      2.000000
  0.166667  0.083333  0.000000      4.000000
  0.333333  0.083333  0.000000      4.000000
  0.500000  0.083333  0.000000      2.000000
  0.000000  0.166667  0.000000      2.000000
  0.166667  0.166667  0.000000      4.000000
  0.333333  0.166667  0.000000      4.000000
  0.500000  0.166667  0.000000      2.000000
  0.000000  0.250000  0.000000      2.000000
  0.166667  0.250000  0.000000      4.000000
  0.333333  0.250000  0.000000      4.000000
  0.500000  0.250000  0.000000      2.000000
  0.000000  0.333333  0.000000      2.000000
  0.166667  0.333333  0.000000      4.000000
  0.333333  0.333333  0.000000      4.000000
  0.500000  0.333333  0.000000      2.000000
  0.000000  0.416667  0.000000      2.000000
  0.166667  0.416667  0.000000      4.000000
  0.333333  0.416667  0.000000      4.000000
  0.500000  0.416667  0.000000      2.000000
  0.000000  0.500000  0.000000      1.000000
  0.166667  0.500000  0.000000      2.000000
  0.333333  0.500000  0.000000      2.000000
  0.500000  0.500000  0.000000      1.000000
  0.000000  0.000000  0.333333      2.000000
  0.166667  0.000000  0.333333      4.000000
  0.333333  0.000000  0.333333      4.000000
  0.500000  0.000000  0.333333      2.000000
  0.000000  0.083333  0.333333      4.000000
  0.166667  0.083333  0.333333      8.000000
  0.333333  0.083333  0.333333      8.000000
  0.500000  0.083333  0.333333      4.000000
  0.000000  0.166667  0.333333      4.000000
  0.166667  0.166667  0.333333      8.000000
  0.333333  0.166667  0.333333      8.000000
  0.500000  0.166667  0.333333      4.000000
  0.000000  0.250000  0.333333      4.000000
  0.166667  0.250000  0.333333      8.000000
  0.333333  0.250000  0.333333      8.000000
  0.500000  0.250000  0.333333      4.000000
  0.000000  0.333333  0.333333      4.000000
  0.166667  0.333333  0.333333      8.000000
  0.333333  0.333333  0.333333      8.000000
  0.500000  0.333333  0.333333      4.000000
  0.000000  0.416667  0.333333      4.000000
  0.166667  0.416667  0.333333      8.000000
  0.333333  0.416667  0.333333      8.000000
  0.500000  0.416667  0.333333      4.000000
  0.000000  0.500000  0.333333      2.000000
  0.166667  0.500000  0.333333      4.000000
  0.333333  0.500000  0.333333      4.000000
  0.500000  0.500000  0.333333      2.000000
 
 Following cartesian coordinates:
            Coordinates               Weight
  0.000000  0.000000  0.000000      1.000000
  0.015973  0.000000  0.000000      2.000000
  0.031946  0.000000  0.000000      2.000000
  0.047919  0.000000  0.000000      1.000000
  0.000000  0.017396  0.000000      2.000000
  0.015973  0.017396  0.000000      4.000000
  0.031946  0.017396  0.000000      4.000000
  0.047919  0.017396  0.000000      2.000000
  0.000000  0.034791  0.000000      2.000000
  0.015973  0.034791  0.000000      4.000000
  0.031946  0.034791  0.000000      4.000000
  0.047919  0.034791  0.000000      2.000000
  0.000000  0.052187  0.000000      2.000000
  0.015973  0.052187  0.000000      4.000000
  0.031946  0.052187  0.000000      4.000000
  0.047919  0.052187  0.000000      2.000000
  0.000000  0.069582  0.000000      2.000000
  0.015973  0.069582  0.000000      4.000000
  0.031946  0.069582  0.000000      4.000000
  0.047919  0.069582  0.000000      2.000000
  0.000000  0.086978  0.000000      2.000000
  0.015973  0.086978  0.000000      4.000000
  0.031946  0.086978  0.000000      4.000000
  0.047919  0.086978  0.000000      2.000000
  0.000000  0.104373  0.000000      1.000000
  0.015973  0.104373  0.000000      2.000000
  0.031946  0.104373  0.000000      2.000000
  0.047919  0.104373  0.000000      1.000000
  0.000000  0.000000  0.018768      2.000000
  0.015973  0.000000  0.018768      4.000000
  0.031946  0.000000  0.018768      4.000000
  0.047919  0.000000  0.018768      2.000000
  0.000000  0.017396  0.018768      4.000000
  0.015973  0.017396  0.018768      8.000000
  0.031946  0.017396  0.018768      8.000000
  0.047919  0.017396  0.018768      4.000000
  0.000000  0.034791  0.018768      4.000000
  0.015973  0.034791  0.018768      8.000000
  0.031946  0.034791  0.018768      8.000000
  0.047919  0.034791  0.018768      4.000000
  0.000000  0.052187  0.018768      4.000000
  0.015973  0.052187  0.018768      8.000000
  0.031946  0.052187  0.018768      8.000000
  0.047919  0.052187  0.018768      4.000000
  0.000000  0.069582  0.018768      4.000000
  0.015973  0.069582  0.018768      8.000000
  0.031946  0.069582  0.018768      8.000000
  0.047919  0.069582  0.018768      4.000000
  0.000000  0.086978  0.018768      4.000000
  0.015973  0.086978  0.018768      8.000000
  0.031946  0.086978  0.018768      8.000000
  0.047919  0.086978  0.018768      4.000000
  0.000000  0.104373  0.018768      2.000000
  0.015973  0.104373  0.018768      4.000000
  0.031946  0.104373  0.018768      4.000000
  0.047919  0.104373  0.018768      2.000000
 


--------------------------------------------------------------------------------------------------------




 Dimension of arrays:
   k-points           NKPTS =     56   k-points in BZ     NKDIM =     56   number of bands    NBANDS=    120
   number of dos      NEDOS =   2000   number of ions     NIONS =     20
   non local maximal  LDIM  =      6   non local SUM 2l+1 LMDIM =     18
   total plane-waves  NPLWV = 403200
   max r-space proj   IRMAX =      1   max aug-charges    IRDMAX=  26468
   dimension x,y,z NGX =    80 NGY =   36 NGZ =  140
   dimension x,y,z NGXF=   160 NGYF=   72 NGZF=  280
   support grid    NGXF=   160 NGYF=   72 NGZF=  280
   ions per type =               4  12   4
   NGX,Y,Z   is equivalent  to a cutoff of  12.75, 12.49, 13.10 a.u.
   NGXF,Y,Z  is equivalent  to a cutoff of  25.49, 24.99, 26.21 a.u.

 SYSTEM =  diamond                                 
 POSCAR =  delta-Cesium_Lead_Iodide                

 Startparameter for this run:
   NWRITE =      2    write-flag & timer
   PREC   = accura    normal or accurate (medium, high low for compatibility)
   ISTART =      0    job   : 0-new  1-cont  2-samecut
   ICHARG =      2    charge: 1-file 2-atom 10-const
   ISPIN  =      1    spin polarized calculation?
   LNONCOLLINEAR =      F non collinear calculations
   LSORBIT =      F    spin-orbit coupling
   INIWAV =      1    electr: 0-lowe 1-rand  2-diag
   LASPH  =      F    aspherical Exc in radial PAW
   METAGGA=      F    non-selfconsistent MetaGGA calc.

 Electronic Relaxation 1
   ENCUT  =  520.0 eV  38.22 Ry    6.18 a.u.  19.40  8.91 33.02*2*pi/ulx,y,z
   ENINI  =  520.0     initial cutoff
   ENAUG  =  407.9 eV  augmentation charge cutoff
   NELM   =     60;   NELMIN=  2; NELMDL= -5     # of ELM steps 
   EDIFF  = 0.1E-06   stopping-criterion for ELM
   LREAL  =      F    real-space projection
   NLSPLINE    = F    spline interpolate recip. space projectors
   LCOMPAT=      F    compatible to vasp.4.4
   GGA_COMPAT  = T    GGA compatible to vasp.4.4-vasp.4.6
   LMAXPAW     = -100 max onsite density
   LMAXMIX     =    2 max onsite mixed and CHGCAR
   VOSKOWN=      0    Vosko Wilk Nusair interpolation
   ROPT   =    0.00000   0.00000   0.00000
 Ionic relaxation
   EDIFFG = -.1E-02   stopping-criterion for IOM
   NSW    =    300    number of steps for IOM
   NBLOCK =      1;   KBLOCK =    300    inner block; outer block 
   IBRION =      2    ionic relax: 0-MD 1-quasi-New 2-CG
   NFREE  =      1    steps in history (QN), initial steepest desc. (CG)
   ISIF   =      2    stress and relaxation
   IWAVPR =     11    prediction:  0-non 1-charg 2-wave 3-comb
   ISYM   =      2    0-nonsym 1-usesym 2-fastsym
   LCORR  =      T    Harris-Foulkes like correction to forces

   POTIM  = 0.1000    time-step for ionic-motion
   TEIN   =    0.0    initial temperature
   TEBEG  =    0.0;   TEEND  =   0.0 temperature during run
   SMASS  =  -3.00    Nose mass-parameter (am)
   estimated Nose-frequenzy (Omega)   =  0.10E-29 period in steps =****** mass=  -0.249E-26a.u.
   SCALEE = 1.0000    scale energy and forces
   NPACO  =    256;   APACO  = 16.0  distance and # of slots for P.C.
   PSTRESS=    0.0 pullay stress

  Mass of Ions in am
   POMASS = 207.20126.90132.90
  Ionic Valenz
   ZVAL   =  14.00  7.00  9.00
  Atomic Wigner-Seitz radii
   RWIGS  =  -1.00 -1.00 -1.00
  virtual crystal weights 
   VCA    =   1.00  1.00  1.00
   NELECT =     176.0000    total number of electrons
   NUPDOWN=      -1.0000    fix difference up-down

 DOS related values:
   EMIN   =  10.00;   EMAX   =-10.00  energy-range for DOS
   EFERMI =   0.00
   ISMEAR =     0;   SIGMA  =   0.20  broadening in eV -4-tet -1-fermi 0-gaus

 Electronic relaxation 2 (details)
   IALGO  =     38    algorithm
   LDIAG  =      T    sub-space diagonalisation (order eigenvalues)
   LSUBROT=      F    optimize rotation matrix (better conditioning)
   TURBO    =      0    0=normal 1=particle mesh
   IRESTART =      0    0=no restart 2=restart with 2 vectors
   NREBOOT  =      0    no. of reboots
   NMIN     =      0    reboot dimension
   EREF     =   0.00    reference energy to select bands
   IMIX   =      4    mixing-type and parameters
     AMIX     =   0.40;   BMIX     =  1.00
     AMIX_MAG =   1.60;   BMIX_MAG =  1.00
     AMIN     =   0.10
     WC   =   100.;   INIMIX=   1;  MIXPRE=   1;  MAXMIX= -45

 Intra band minimization:
   WEIMIN = 0.0010     energy-eigenvalue tresh-hold
   EBREAK =  0.21E-09  absolut break condition
   DEPER  =   0.30     relativ break condition  

   TIME   =   0.40     timestep for ELM

  volume/ion in A,a.u.               =      44.39       299.55
  Fermi-wavevector in a.u.,A,eV,Ry     =   0.954575  1.803885 12.397803  0.911213
  Thomas-Fermi vector in A             =   2.083334
 
 Write flags
   LWAVE        =      T    write WAVECAR
   LDOWNSAMPLE  =      F    k-point downsampling of WAVECAR
   LCHARG       =      T    write CHGCAR
   LVTOT        =      F    write LOCPOT, total local potential
   LVHAR        =      F    write LOCPOT, Hartree potential only
   LELF         =      F    write electronic localiz. function (ELF)
   LORBIT       =      0    0 simple, 1 ext, 2 COOP (PROOUT), +10 PAW based schemes


 Dipole corrections
   LMONO  =      F    monopole corrections only (constant potential shift)
   LDIPOL =      F    correct potential (dipole corrections)
   IDIPOL =      0    1-x, 2-y, 3-z, 4-all directions 
   EPSILON=  1.0000000 bulk dielectric constant

 Exchange correlation treatment:
   GGA     =    --    GGA type
   LEXCH   =     8    internal setting for exchange type
   VOSKOWN=      0    Vosko Wilk Nusair interpolation
   LHFCALC =     F    Hartree Fock is set to
   LHFONE  =     F    Hartree Fock one center treatment
   AEXX    =    0.0000 exact exchange contribution

 Linear response parameters
   LEPSILON=     F    determine dielectric tensor
   LRPA    =     F    only Hartree local field effects (RPA)
   LNABLA  =     F    use nabla operator in PAW spheres
   LVEL    =     F    velocity operator in full k-point grid
   LINTERFAST=   F  fast interpolation
   KINTER  =     0    interpolate to denser k-point grid
   CSHIFT  =0.1000    complex shift for real part using Kramers Kronig
   OMEGAMAX=  -1.0    maximum frequency
   DEG_THRESHOLD= 0.2000000E-02 threshold for treating states as degnerate
   RTIME   =   -0.100 relaxation time in fs
  (WPLASMAI=    0.000 imaginary part of plasma frequency in eV, 0.658/RTIME)
   DFIELD  = 0.0000000 0.0000000 0.0000000 field for delta impulse in time
 
 Orbital magnetization related:
   ORBITALMAG=     F  switch on orbital magnetization
   LCHIMAG   =     F  perturbation theory with respect to B field
   DQ        =  0.001000  dq finite difference perturbation B field
   LLRAUG    =     F  two centre corrections for induced B field



--------------------------------------------------------------------------------------------------------


 conjugate gradient relaxation of ions
 charge density and potential will be updated during run
 non-spin polarized calculation
 Variant of blocked Davidson
 Davidson routine will perform the subspace rotation
 perform sub-space diagonalisation
    after iterative eigenvector-optimisation
 modified Broyden-mixing scheme, WC =      100.0
 initial mixing is a Kerker type mixing with AMIX =  0.4000 and BMIX =      1.0000
 Hartree-type preconditioning will be used
 using additional bands           32
 reciprocal scheme for non local part
 use partial core corrections
 calculate Harris-corrections to forces 
   (improved forces if not selfconsistent)
 use gradient corrections 
 use of overlap-Matrix (Vanderbilt PP)
 Gauss-broadening in eV      SIGMA  =   0.20


--------------------------------------------------------------------------------------------------------


  energy-cutoff  :      520.00
  volume of cell :      887.78
      direct lattice vectors                 reciprocal lattice vectors
    10.434200287  0.000000000  0.000000000     0.095838682  0.000000000  0.000000000
     0.000000000  4.790500164  0.000000000     0.000000000  0.208746470  0.000000000
     0.000000000  0.000000000 17.760999680     0.000000000  0.000000000  0.056303137

  length of vectors
    10.434200287  4.790500164 17.760999680     0.095838682  0.208746470  0.056303137


 
 k-points in units of 2pi/SCALE and weight: K-Mesh Generated with KP-Resolved Value 
   0.00000000  0.00000000  0.00000000       0.005
   0.01597311  0.00000000  0.00000000       0.009
   0.03194623  0.00000000  0.00000000       0.009
   0.04791934  0.00000000  0.00000000       0.005
   0.00000000  0.01739554  0.00000000       0.009
   0.01597311  0.01739554  0.00000000       0.019
   0.03194623  0.01739554  0.00000000       0.019
   0.04791934  0.01739554  0.00000000       0.009
   0.00000000  0.03479108  0.00000000       0.009
   0.01597311  0.03479108  0.00000000       0.019
   0.03194623  0.03479108  0.00000000       0.019
   0.04791934  0.03479108  0.00000000       0.009
   0.00000000  0.05218662  0.00000000       0.009
   0.01597311  0.05218662  0.00000000       0.019
   0.03194623  0.05218662  0.00000000       0.019
   0.04791934  0.05218662  0.00000000       0.009
   0.00000000  0.06958216  0.00000000       0.009
   0.01597311  0.06958216  0.00000000       0.019
   0.03194623  0.06958216  0.00000000       0.019
   0.04791934  0.06958216  0.00000000       0.009
   0.00000000  0.08697770  0.00000000       0.009
   0.01597311  0.08697770  0.00000000       0.019
   0.03194623  0.08697770  0.00000000       0.019
   0.04791934  0.08697770  0.00000000       0.009
   0.00000000  0.10437324  0.00000000       0.005
   0.01597311  0.10437324  0.00000000       0.009
   0.03194623  0.10437324  0.00000000       0.009
   0.04791934  0.10437324  0.00000000       0.005
   0.00000000  0.00000000  0.01876771       0.009
   0.01597311  0.00000000  0.01876771       0.019
   0.03194623  0.00000000  0.01876771       0.019
   0.04791934  0.00000000  0.01876771       0.009
   0.00000000  0.01739554  0.01876771       0.019
   0.01597311  0.01739554  0.01876771       0.037
   0.03194623  0.01739554  0.01876771       0.037
   0.04791934  0.01739554  0.01876771       0.019
   0.00000000  0.03479108  0.01876771       0.019
   0.01597311  0.03479108  0.01876771       0.037
   0.03194623  0.03479108  0.01876771       0.037
   0.04791934  0.03479108  0.01876771       0.019
   0.00000000  0.05218662  0.01876771       0.019
   0.01597311  0.05218662  0.01876771       0.037
   0.03194623  0.05218662  0.01876771       0.037
   0.04791934  0.05218662  0.01876771       0.019
   0.00000000  0.06958216  0.01876771       0.019
   0.01597311  0.06958216  0.01876771       0.037
   0.03194623  0.06958216  0.01876771       0.037
   0.04791934  0.06958216  0.01876771       0.019
   0.00000000  0.08697770  0.01876771       0.019
   0.01597311  0.08697770  0.01876771       0.037
   0.03194623  0.08697770  0.01876771       0.037
   0.04791934  0.08697770  0.01876771       0.019
   0.00000000  0.10437324  0.01876771       0.009
   0.01597311  0.10437324  0.01876771       0.019
   0.03194623  0.10437324  0.01876771       0.019
   0.04791934  0.10437324  0.01876771       0.009
 
 k-points in reciprocal lattice and weights: K-Mesh Generated with KP-Resolved Value 
   0.00000000  0.00000000  0.00000000       0.005
   0.16666667  0.00000000  0.00000000       0.009
   0.33333333  0.00000000  0.00000000       0.009
   0.50000000  0.00000000  0.00000000       0.005
   0.00000000  0.08333333  0.00000000       0.009
   0.16666667  0.08333333  0.00000000       0.019
   0.33333333  0.08333333  0.00000000       0.019
   0.50000000  0.08333333  0.00000000       0.009
   0.00000000  0.16666667  0.00000000       0.009
   0.16666667  0.16666667  0.00000000       0.019
   0.33333333  0.16666667  0.00000000       0.019
   0.50000000  0.16666667  0.00000000       0.009
   0.00000000  0.25000000  0.00000000       0.009
   0.16666667  0.25000000  0.00000000       0.019
   0.33333333  0.25000000  0.00000000       0.019
   0.50000000  0.25000000  0.00000000       0.009
   0.00000000  0.33333333  0.00000000       0.009
   0.16666667  0.33333333  0.00000000       0.019
   0.33333333  0.33333333  0.00000000       0.019
   0.50000000  0.33333333  0.00000000       0.009
   0.00000000  0.41666667  0.00000000       0.009
   0.16666667  0.41666667  0.00000000       0.019
   0.33333333  0.41666667  0.00000000       0.019
   0.50000000  0.41666667  0.00000000       0.009
   0.00000000  0.50000000  0.00000000       0.005
   0.16666667  0.50000000  0.00000000       0.009
   0.33333333  0.50000000  0.00000000       0.009
   0.50000000  0.50000000  0.00000000       0.005
   0.00000000  0.00000000  0.33333333       0.009
   0.16666667  0.00000000  0.33333333       0.019
   0.33333333  0.00000000  0.33333333       0.019
   0.50000000  0.00000000  0.33333333       0.009
   0.00000000  0.08333333  0.33333333       0.019
   0.16666667  0.08333333  0.33333333       0.037
   0.33333333  0.08333333  0.33333333       0.037
   0.50000000  0.08333333  0.33333333       0.019
   0.00000000  0.16666667  0.33333333       0.019
   0.16666667  0.16666667  0.33333333       0.037
   0.33333333  0.16666667  0.33333333       0.037
   0.50000000  0.16666667  0.33333333       0.019
   0.00000000  0.25000000  0.33333333       0.019
   0.16666667  0.25000000  0.33333333       0.037
   0.33333333  0.25000000  0.33333333       0.037
   0.50000000  0.25000000  0.33333333       0.019
   0.00000000  0.33333333  0.33333333       0.019
   0.16666667  0.33333333  0.33333333       0.037
   0.33333333  0.33333333  0.33333333       0.037
   0.50000000  0.33333333  0.33333333       0.019
   0.00000000  0.41666667  0.33333333       0.019
   0.16666667  0.41666667  0.33333333       0.037
   0.33333333  0.41666667  0.33333333       0.037
   0.50000000  0.41666667  0.33333333       0.019
   0.00000000  0.50000000  0.33333333       0.009
   0.16666667  0.50000000  0.33333333       0.019
   0.33333333  0.50000000  0.33333333       0.019
   0.50000000  0.50000000  0.33333333       0.009
 
 position of ions in fractional coordinates (direct lattice) 
   0.16093925  0.25000000  0.43901396
   0.83906069  0.74999998  0.56098601
   0.33906073  0.74999998  0.93901404
   0.66093927  0.25000000  0.06098604
   0.15991708  0.25000000  0.00198253
   0.84008297  0.74999998  0.99801747
   0.34008292  0.74999998  0.50198258
   0.65991708  0.25000000  0.49801747
   0.30023202  0.25000000  0.28497898
   0.69976796  0.74999998  0.71502104
   0.19976798  0.74999998  0.78497896
   0.80023204  0.25000000  0.21502102
   0.03388179  0.25000000  0.61372837
   0.96611821  0.74999998  0.38627166
   0.46611821  0.74999998  0.11372841
   0.53388179  0.25000000  0.88627163
   0.41713102  0.25000000  0.67193047
   0.58286898  0.74999998  0.32806953
   0.08286900  0.74999998  0.17193047
   0.91713102  0.25000000  0.82806953
 
 position of ions in cartesian coordinates  (Angst):
   1.67927241  1.19762504  7.79732680
   8.75492729  3.59287500  9.96367240
   3.53782761  3.59287500 16.67782808
   6.89637268  1.19762504  1.08317304
   1.66860682  1.19762504  0.03521166
   8.76559394  3.59287500 17.72578804
   3.54849332  3.59287500  8.91571244
   6.88570696  1.19762504  8.84528820
   3.13268102  1.19762504  5.06151162
   7.30151903  3.59287500 12.69948852
   2.08441913  3.59287500 13.94201100
   8.34978140  1.19762504  3.81898822
   0.35352936  1.19762504 10.90042934
  10.08067087  3.59287500  6.86057082
   4.86357072  3.59287500  2.01993021
   5.57062956  1.19762504 15.74107018
   4.35242856  1.19762504 11.93415683
   6.08177173  3.59287500  5.82684285
   0.86467176  3.59287500  3.05365699
   9.56952870  1.19762504 14.70734269
 


--------------------------------------------------------------------------------------------------------


 k-point  1 :   0.0000 0.0000 0.0000  plane waves:   23905
 k-point  2 :   0.1667 0.0000 0.0000  plane waves:   23891
 k-point  3 :   0.3333 0.0000 0.0000  plane waves:   23841
 k-point  4 :   0.5000 0.0000 0.0000  plane waves:   23834
 k-point  5 :   0.0000 0.0833 0.0000  plane waves:   23867
 k-point  6 :   0.1667 0.0833 0.0000  plane waves:   23874
 k-point  7 :   0.3333 0.0833 0.0000  plane waves:   23859
 k-point  8 :   0.5000 0.0833 0.0000  plane waves:   23842
 k-point  9 :   0.0000 0.1667 0.0000  plane waves:   23882
 k-point 10 :   0.1667 0.1667 0.0000  plane waves:   23866
 k-point 11 :   0.3333 0.1667 0.0000  plane waves:   23875
 k-point 12 :   0.5000 0.1667 0.0000  plane waves:   23856
 k-point 13 :   0.0000 0.2500 0.0000  plane waves:   23914
 k-point 14 :   0.1667 0.2500 0.0000  plane waves:   23917
 k-point 15 :   0.3333 0.2500 0.0000  plane waves:   23883
 k-point 16 :   0.5000 0.2500 0.0000  plane waves:   23912
 k-point 17 :   0.0000 0.3333 0.0000  plane waves:   23886
 k-point 18 :   0.1667 0.3333 0.0000  plane waves:   23932
 k-point 19 :   0.3333 0.3333 0.0000  plane waves:   23909
 k-point 20 :   0.5000 0.3333 0.0000  plane waves:   23936
 k-point 21 :   0.0000 0.4167 0.0000  plane waves:   23944
 k-point 22 :   0.1667 0.4167 0.0000  plane waves:   23928
 k-point 23 :   0.3333 0.4167 0.0000  plane waves:   23929
 k-point 24 :   0.5000 0.4167 0.0000  plane waves:   23948
 k-point 25 :   0.0000 0.5000 0.0000  plane waves:   23930
 k-point 26 :   0.1667 0.5000 0.0000  plane waves:   23926
 k-point 27 :   0.3333 0.5000 0.0000  plane waves:   23926
 k-point 28 :   0.5000 0.5000 0.0000  plane waves:   23928
 k-point 29 :   0.0000 0.0000 0.3333  plane waves:   23868
 k-point 30 :   0.1667 0.0000 0.3333  plane waves:   23889
 k-point 31 :   0.3333 0.0000 0.3333  plane waves:   23854
 k-point 32 :   0.5000 0.0000 0.3333  plane waves:   23852
 k-point 33 :   0.0000 0.0833 0.3333  plane waves:   23877
 k-point 34 :   0.1667 0.0833 0.3333  plane waves:   23880
 k-point 35 :   0.3333 0.0833 0.3333  plane waves:   23859
 k-point 36 :   0.5000 0.0833 0.3333  plane waves:   23854
 k-point 37 :   0.0000 0.1667 0.3333  plane waves:   23903
 k-point 38 :   0.1667 0.1667 0.3333  plane waves:   23895
 k-point 39 :   0.3333 0.1667 0.3333  plane waves:   23879
 k-point 40 :   0.5000 0.1667 0.3333  plane waves:   23878
 k-point 41 :   0.0000 0.2500 0.3333  plane waves:   23911
 k-point 42 :   0.1667 0.2500 0.3333  plane waves:   23911
 k-point 43 :   0.3333 0.2500 0.3333  plane waves:   23907
 k-point 44 :   0.5000 0.2500 0.3333  plane waves:   23910
 k-point 45 :   0.0000 0.3333 0.3333  plane waves:   23916
 k-point 46 :   0.1667 0.3333 0.3333  plane waves:   23934
 k-point 47 :   0.3333 0.3333 0.3333  plane waves:   23938
 k-point 48 :   0.5000 0.3333 0.3333  plane waves:   23924
 k-point 49 :   0.0000 0.4167 0.3333  plane waves:   23938
 k-point 50 :   0.1667 0.4167 0.3333  plane waves:   23932
 k-point 51 :   0.3333 0.4167 0.3333  plane waves:   23944
 k-point 52 :   0.5000 0.4167 0.3333  plane waves:   23924
 k-point 53 :   0.0000 0.5000 0.3333  plane waves:   23952
 k-point 54 :   0.1667 0.5000 0.3333  plane waves:   23938
 k-point 55 :   0.3333 0.5000 0.3333  plane waves:   23962
 k-point 56 :   0.5000 0.5000 0.3333  plane waves:   23932

 maximum and minimum number of plane-waves per node :     12020    11840

 maximum number of plane-waves:     23962
 maximum index in each direction: 
   IXMAX=   19   IYMAX=    8   IZMAX=   33
   IXMIN=  -19   IYMIN=   -9   IZMIN=  -33


 parallel 3D FFT for wavefunctions:
    minimum data exchange during FFTs selected (reduces bandwidth)
 parallel 3D FFT for charge:
    minimum data exchange during FFTs selected (reduces bandwidth)


 total amount of memory used by VASP MPI-rank0   401244. kBytes
=======================================================================

   base      :      30000. kBytes
   nonl-proj :     294732. kBytes
   fftplans  :       8570. kBytes
   grid      :      13275. kBytes
   one-center:        155. kBytes
   wavefun   :      54512. kBytes
 
     INWAV:  cpu time    0.0000: real time    0.0000
 Broyden mixing: mesh for mixing (old mesh)
   NGX = 39   NGY = 17   NGZ = 67
  (NGX  =160   NGY  = 72   NGZ  =280)
  gives a total of  44421 points

 initial charge density was supplied:
 charge density of overlapping atoms calculated
 number of electron     176.0000000 magnetization 
 keeping initial charge density in first step


--------------------------------------------------------------------------------------------------------


 Maximum index for augmentation-charges         1651 (set IRDMAX)


--------------------------------------------------------------------------------------------------------


 First call to EWALD:  gamma=   0.184
 Maximum number of real-space cells 3x 5x 2
 Maximum number of reciprocal cells 3x 2x 5

    FEWALD:  cpu time    0.0040: real time    0.0074


--------------------------------------- Iteration      1(   1)  ---------------------------------------


    POTLOK:  cpu time    0.1140: real time    0.1806
    SETDIJ:  cpu time    0.0260: real time    0.0360
     EDDAV:  cpu time   33.8299: real time   34.4615
       DOS:  cpu time    0.0210: real time    0.0381
    --------------------------------------------
      LOOP:  cpu time   33.9908: real time   34.7163

 eigenvalue-minimisations  : 13440
 total energy-change (2. order) : 0.1485090E+04  (-0.7084348E+04)
 number of electron     176.0000000 magnetization 
 augmentation part      176.0000000 magnetization 

 Free energy of the ion-electron system (eV)
  ---------------------------------------------------
  alpha Z        PSCENC =       296.55173223
  Ewald energy   TEWEN  =     -8963.34988360
  -Hartree energ DENC   =     -3451.95188824
  -exchange      EXHF   =         0.00000000
  -V(xc)+E(xc)   XCENC  =        33.36886487
  PAW double counting   =     10703.56087596   -10293.56226698
  entropy T*S    EENTRO =        -0.18581130
  eigenvalues    EBANDS =       501.06797748
  atomic energy  EATOM  =     12659.59018207
  Solvation  Ediel_sol  =         0.00000000
  ---------------------------------------------------
  free energy    TOTEN  =      1485.08978249 eV

  energy without entropy =     1485.27559379  energy(sigma->0) =     1485.18268814


--------------------------------------------------------------------------------------------------------




--------------------------------------- Iteration      1(   2)  ---------------------------------------


     EDDAV:  cpu time   37.0434: real time   37.2586
       DOS:  cpu time    0.0140: real time    0.0185
    --------------------------------------------
      LOOP:  cpu time   37.0574: real time   37.2772

 eigenvalue-minimisations  : 15192
 total energy-change (2. order) :-0.1356253E+04  (-0.1296777E+04)
 number of electron     176.0000000 magnetization 
 augmentation part      176.0000000 magnetization 

 Free energy of the ion-electron system (eV)
  ---------------------------------------------------
  alpha Z        PSCENC =       296.55173223
  Ewald energy   TEWEN  =     -8963.34988360
  -Hartree energ DENC   =     -3451.95188824
  -exchange      EXHF   =         0.00000000
  -V(xc)+E(xc)   XCENC  =        33.36886487
  PAW double counting   =     10703.56087596   -10293.56226698
  entropy T*S    EENTRO =        -0.00007653
  eigenvalues    EBANDS =      -855.37101627
  atomic energy  EATOM  =     12659.59018207
  Solvation  Ediel_sol  =         0.00000000
  ---------------------------------------------------
  free energy    TOTEN  =       128.83652352 eV

  energy without entropy =      128.83660004  energy(sigma->0) =      128.83656178


--------------------------------------------------------------------------------------------------------




--------------------------------------- Iteration      1(   3)  ---------------------------------------


     EDDAV:  cpu time   40.9658: real time   41.1984
       DOS:  cpu time    0.0140: real time    0.0226
    --------------------------------------------
      LOOP:  cpu time   40.9798: real time   41.2210

 eigenvalue-minimisations  : 17256
 total energy-change (2. order) :-0.1791076E+03  (-0.1777696E+03)
 number of electron     176.0000000 magnetization 
 augmentation part      176.0000000 magnetization 

 Free energy of the ion-electron system (eV)
  ---------------------------------------------------
  alpha Z        PSCENC =       296.55173223
  Ewald energy   TEWEN  =     -8963.34988360
  -Hartree energ DENC   =     -3451.95188824
  -exchange      EXHF   =         0.00000000
  -V(xc)+E(xc)   XCENC  =        33.36886487
  PAW double counting   =     10703.56087596   -10293.56226698
  entropy T*S    EENTRO =        -0.00000000
  eigenvalues    EBANDS =     -1034.47873408
  atomic energy  EATOM  =     12659.59018207
  Solvation  Ediel_sol  =         0.00000000
  ---------------------------------------------------
  free energy    TOTEN  =       -50.27111776 eV

  energy without entropy =      -50.27111776  energy(sigma->0) =      -50.27111776


--------------------------------------------------------------------------------------------------------




--------------------------------------- Iteration      1(   4)  ---------------------------------------


     EDDAV:  cpu time   39.5940: real time   39.8281
       DOS:  cpu time    0.0150: real time    0.0205
    --------------------------------------------
      LOOP:  cpu time   39.6090: real time   39.8487

 eigenvalue-minimisations  : 16488
 total energy-change (2. order) :-0.7571256E+01  (-0.7561401E+01)
 number of electron     176.0000000 magnetization 
 augmentation part      176.0000000 magnetization 

 Free energy of the ion-electron system (eV)
  ---------------------------------------------------
  alpha Z        PSCENC =       296.55173223
  Ewald energy   TEWEN  =     -8963.34988360
  -Hartree energ DENC   =     -3451.95188824
  -exchange      EXHF   =         0.00000000
  -V(xc)+E(xc)   XCENC  =        33.36886487
  PAW double counting   =     10703.56087596   -10293.56226698
  entropy T*S    EENTRO =        -0.00000000
  eigenvalues    EBANDS =     -1042.04999022
  atomic energy  EATOM  =     12659.59018207
  Solvation  Ediel_sol  =         0.00000000
  ---------------------------------------------------
  free energy    TOTEN  =       -57.84237390 eV

  energy without entropy =      -57.84237390  energy(sigma->0) =      -57.84237390


--------------------------------------------------------------------------------------------------------




--------------------------------------- Iteration      1(   5)  ---------------------------------------


     EDDAV:  cpu time   44.4232: real time   44.6658
       DOS:  cpu time    0.0150: real time    0.0196
    CHARGE:  cpu time    2.4946: real time    2.5829
    MIXING:  cpu time    0.0070: real time    0.0897
    --------------------------------------------
      LOOP:  cpu time   46.9399: real time   47.3580

 eigenvalue-minimisations  : 19152
 total energy-change (2. order) :-0.4028559E+00  (-0.4028383E+00)
 number of electron     176.0000031 magnetization 
 augmentation part       -6.2471821 magnetization 

 Broyden mixing:
  rms(total) = 0.69846E+00    rms(broyden)= 0.69845E+00
  rms(prec ) = 0.80459E+00
  weight for this iteration     100.00

 Free energy of the ion-electron system (eV)
  ---------------------------------------------------
  alpha Z        PSCENC =       296.55173223
  Ewald energy   TEWEN  =     -8963.34988360
  -Hartree energ DENC   =     -3451.95188824
  -exchange      EXHF   =         0.00000000
  -V(xc)+E(xc)   XCENC  =        33.36886487
  PAW double counting   =     10703.56087596   -10293.56226698
  entropy T*S    EENTRO =        -0.00000000
  eigenvalues    EBANDS =     -1042.45284615
  atomic energy  EATOM  =     12659.59018207
  Solvation  Ediel_sol  =         0.00000000
  ---------------------------------------------------
  free energy    TOTEN  =       -58.24522984 eV

  energy without entropy =      -58.24522984  energy(sigma->0) =      -58.24522984


--------------------------------------------------------------------------------------------------------




--------------------------------------- Iteration      1(   6)  ---------------------------------------


    POTLOK:  cpu time    0.1000: real time    0.1045
    SETDIJ:  cpu time    0.0060: real time    0.0056
     EDDAV:  cpu time   43.8433: real time   44.0838
       DOS:  cpu time    0.0130: real time    0.0235
    CHARGE:  cpu time    2.4726: real time    2.4828
    MIXING:  cpu time    0.0090: real time    0.0551
    --------------------------------------------
      LOOP:  cpu time   46.4439: real time   46.7554

 eigenvalue-minimisations  : 18816
 total energy-change (2. order) : 0.1500174E+01  (-0.1906693E+00)
 number of electron     176.0000031 magnetization 
 augmentation part       -5.9384254 magnetization 

 Broyden mixing:
  rms(total) = 0.49348E+00    rms(broyden)= 0.49348E+00
  rms(prec ) = 0.52186E+00
  weight for this iteration     100.00

 eigenvalues of (default mixing * dielectric matrix)
  average eigenvalue GAMMA=   1.9575
  1.9575

 Free energy of the ion-electron system (eV)
  ---------------------------------------------------
  alpha Z        PSCENC =       296.55173223
  Ewald energy   TEWEN  =     -8963.34988360
  -Hartree energ DENC   =     -3440.77595393
  -exchange      EXHF   =         0.00000000
  -V(xc)+E(xc)   XCENC  =        34.73583945
  PAW double counting   =     11009.23559068   -10596.35642927
  entropy T*S    EENTRO =        -0.00000000
  eigenvalues    EBANDS =     -1056.37613303
  atomic energy  EATOM  =     12659.59018207
  Solvation  Ediel_sol  =         0.00000000
  ---------------------------------------------------
  free energy    TOTEN  =       -56.74505539 eV

  energy without entropy =      -56.74505539  energy(sigma->0) =      -56.74505539


--------------------------------------------------------------------------------------------------------




--------------------------------------- Iteration      1(   7)  ---------------------------------------


    POTLOK:  cpu time    0.0890: real time    0.1074
    SETDIJ:  cpu time    0.0060: real time    0.0059
     EDDAV:  cpu time   45.7300: real time   45.9782
       DOS:  cpu time    0.0160: real time    0.0193
    CHARGE:  cpu time    2.4746: real time    2.4850
    MIXING:  cpu time    0.0140: real time    0.0355
    --------------------------------------------
      LOOP:  cpu time   48.3307: real time   48.6325

 eigenvalue-minimisations  : 19848
 total energy-change (2. order) : 0.1134083E+00  (-0.1585501E+00)
 number of electron     176.0000031 magnetization 
 augmentation part       -5.7465328 magnetization 

 Broyden mixing:
  rms(total) = 0.24359E+00    rms(broyden)= 0.24359E+00
  rms(prec ) = 0.24942E+00
  weight for this iteration     100.00

 eigenvalues of (default mixing * dielectric matrix)
  average eigenvalue GAMMA=   1.8827
  1.3185  2.4469

 Free energy of the ion-electron system (eV)
  ---------------------------------------------------
  alpha Z        PSCENC =       296.55173223
  Ewald energy   TEWEN  =     -8963.34988360
  -Hartree energ DENC   =     -3434.33924044
  -exchange      EXHF   =         0.00000000
  -V(xc)+E(xc)   XCENC  =        35.98110912
  PAW double counting   =     11533.66960639   -11119.20424032
  entropy T*S    EENTRO =        -0.00000000
  eigenvalues    EBANDS =     -1065.53091254
  atomic energy  EATOM  =     12659.59018207
  Solvation  Ediel_sol  =         0.00000000
  ---------------------------------------------------
  free energy    TOTEN  =       -56.63164709 eV

  energy without entropy =      -56.63164709  energy(sigma->0) =      -56.63164709


--------------------------------------------------------------------------------------------------------




--------------------------------------- Iteration      1(   8)  ---------------------------------------


    POTLOK:  cpu time    0.0970: real time    0.1067
    SETDIJ:  cpu time    0.0060: real time    0.0060
     EDDAV:  cpu time   39.6370: real time   39.8658
       DOS:  cpu time    0.0160: real time    0.0181
    CHARGE:  cpu time    2.4826: real time    2.4940
    MIXING:  cpu time    0.0050: real time    0.0081
    --------------------------------------------
      LOOP:  cpu time   42.2426: real time   42.4974

 eigenvalue-minimisations  : 16536
 total energy-change (2. order) :-0.1916956E-01  (-0.2679984E-01)
 number of electron     176.0000031 magnetization 
 augmentation part       -5.8319573 magnetization 

 Broyden mixing:
  rms(total) = 0.11182E+00    rms(broyden)= 0.11182E+00
  rms(prec ) = 0.11404E+00
  weight for this iteration     100.00

 eigenvalues of (default mixing * dielectric matrix)
  average eigenvalue GAMMA=   1.6266
  2.3477  1.2661  1.2661

 Free energy of the ion-electron system (eV)
  ---------------------------------------------------
  alpha Z        PSCENC =       296.55173223
  Ewald energy   TEWEN  =     -8963.34988360
  -Hartree energ DENC   =     -3438.02031211
  -exchange      EXHF   =         0.00000000
  -V(xc)+E(xc)   XCENC  =        36.33240028
  PAW double counting   =     11882.27691809   -11468.91738804
  entropy T*S    EENTRO =        -0.00000000
  eigenvalues    EBANDS =     -1061.11446558
  atomic energy  EATOM  =     12659.59018207
  Solvation  Ediel_sol  =         0.00000000
  ---------------------------------------------------
  free energy    TOTEN  =       -56.65081665 eV

  energy without entropy =      -56.65081665  energy(sigma->0) =      -56.65081665


--------------------------------------------------------------------------------------------------------




--------------------------------------- Iteration      1(   9)  ---------------------------------------


    POTLOK:  cpu time    0.0900: real time    0.1068
    SETDIJ:  cpu time    0.0060: real time    0.0059
     EDDAV:  cpu time   41.6497: real time   41.8579
       DOS:  cpu time    0.0080: real time    0.0081
    CHARGE:  cpu time    2.4516: real time    2.4666
    MIXING:  cpu time    0.0140: real time    0.0189
    --------------------------------------------
      LOOP:  cpu time   44.2193: real time   44.4642

 eigenvalue-minimisations  : 17616
 total energy-change (2. order) :-0.1625867E-02  (-0.2205586E-02)
 number of electron     176.0000031 magnetization 
 augmentation part       -5.8139087 magnetization 

 Broyden mixing:
  rms(total) = 0.65200E-01    rms(broyden)= 0.65200E-01
  rms(prec ) = 0.66428E-01
  weight for this iteration     100.00

 eigenvalues of (default mixing * dielectric matrix)
  average eigenvalue GAMMA=   1.6844
  2.5739  1.1725  1.4955  1.4955

 Free energy of the ion-electron system (eV)
  ---------------------------------------------------
  alpha Z        PSCENC =       296.55173223
  Ewald energy   TEWEN  =     -8963.34988360
  -Hartree energ DENC   =     -3436.53338189
  -exchange      EXHF   =         0.00000000
  -V(xc)+E(xc)   XCENC  =        36.46594449
  PAW double counting   =     11914.81797648   -11501.34151132
  entropy T*S    EENTRO =        -0.00000000
  eigenvalues    EBANDS =     -1062.85350097
  atomic energy  EATOM  =     12659.59018207
  Solvation  Ediel_sol  =         0.00000000
  ---------------------------------------------------
  free energy    TOTEN  =       -56.65244252 eV

  energy without entropy =      -56.65244252  energy(sigma->0) =      -56.65244252


--------------------------------------------------------------------------------------------------------




--------------------------------------- Iteration      1(  10)  ---------------------------------------


    POTLOK:  cpu time    0.0960: real time    0.1066
    SETDIJ:  cpu time    0.0060: real time    0.0059
     EDDAV:  cpu time   42.6235: real time   42.8384
       DOS:  cpu time    0.0160: real time    0.0201
    CHARGE:  cpu time    2.4436: real time    2.4540
    MIXING:  cpu time    0.0030: real time    0.0038
    --------------------------------------------
      LOOP:  cpu time   45.1881: real time   45.4289

 eigenvalue-minimisations  : 18168
 total energy-change (2. order) :-0.5344046E-03  (-0.5551677E-03)
 number of electron     176.0000031 magnetization 
 augmentation part       -5.8292400 magnetization 

 Broyden mixing:
  rms(total) = 0.13742E-01    rms(broyden)= 0.13742E-01
  rms(prec ) = 0.14549E-01
  weight for this iteration     100.00

 eigenvalues of (default mixing * dielectric matrix)
  average eigenvalue GAMMA=   1.6167
  2.3048  2.3048  1.2336  1.2336  1.0067

 Free energy of the ion-electron system (eV)
  ---------------------------------------------------
  alpha Z        PSCENC =       296.55173223
  Ewald energy   TEWEN  =     -8963.34988360
  -Hartree energ DENC   =     -3436.79277875
  -exchange      EXHF   =         0.00000000
  -V(xc)+E(xc)   XCENC  =        36.52438727
  PAW double counting   =     11947.37994077   -11534.18477778
  entropy T*S    EENTRO =        -0.00000000
  eigenvalues    EBANDS =     -1062.37177914
  atomic energy  EATOM  =     12659.59018207
  Solvation  Ediel_sol  =         0.00000000
  ---------------------------------------------------
  free energy    TOTEN  =       -56.65297692 eV

  energy without entropy =      -56.65297692  energy(sigma->0) =      -56.65297692


--------------------------------------------------------------------------------------------------------




--------------------------------------- Iteration      1(  11)  ---------------------------------------


    POTLOK:  cpu time    0.0900: real time    0.1078
    SETDIJ:  cpu time    0.0060: real time    0.0059
     EDDAV:  cpu time   40.1879: real time   40.3985
       DOS:  cpu time    0.0080: real time    0.0080
    CHARGE:  cpu time    2.4776: real time    2.4909
    MIXING:  cpu time    0.0050: real time    0.0045
    --------------------------------------------
      LOOP:  cpu time   42.7745: real time   43.0156

 eigenvalue-minimisations  : 16800
 total energy-change (2. order) :-0.3459625E-03  (-0.1041690E-03)
 number of electron     176.0000031 magnetization 
 augmentation part       -5.8345637 magnetization 

 Broyden mixing:
  rms(total) = 0.87275E-02    rms(broyden)= 0.87275E-02
  rms(prec ) = 0.91045E-02
  weight for this iteration     100.00

 eigenvalues of (default mixing * dielectric matrix)
  average eigenvalue GAMMA=   1.5146
  2.2240  1.4984  1.4984  1.4409  1.4409  0.9853

 Free energy of the ion-electron system (eV)
  ---------------------------------------------------
  alpha Z        PSCENC =       296.55173223
  Ewald energy   TEWEN  =     -8963.34988360
  -Hartree energ DENC   =     -3437.00534393
  -exchange      EXHF   =         0.00000000
  -V(xc)+E(xc)   XCENC  =        36.55452430
  PAW double counting   =     11956.20580720   -11543.10896762
  entropy T*S    EENTRO =        -0.00000000
  eigenvalues    EBANDS =     -1062.09137353
  atomic energy  EATOM  =     12659.59018207
  Solvation  Ediel_sol  =         0.00000000
  ---------------------------------------------------
  free energy    TOTEN  =       -56.65332289 eV

  energy without entropy =      -56.65332289  energy(sigma->0) =      -56.65332289


--------------------------------------------------------------------------------------------------------




--------------------------------------- Iteration      1(  12)  ---------------------------------------


    POTLOK:  cpu time    0.1000: real time    0.1037
    SETDIJ:  cpu time    0.0060: real time    0.0058
     EDDAV:  cpu time   39.8739: real time   40.0989
       DOS:  cpu time    0.0070: real time    0.0094
    CHARGE:  cpu time    2.4706: real time    2.4769
    MIXING:  cpu time    0.0030: real time    0.0031
    --------------------------------------------
      LOOP:  cpu time   42.4615: real time   42.6978

 eigenvalue-minimisations  : 16656
 total energy-change (2. order) :-0.1858696E-04  (-0.2184488E-04)
 number of electron     176.0000031 magnetization 
 augmentation part       -5.8339139 magnetization 

 Broyden mixing:
  rms(total) = 0.37463E-02    rms(broyden)= 0.37463E-02
  rms(prec ) = 0.41651E-02
  weight for this iteration     100.00

 eigenvalues of (default mixing * dielectric matrix)
  average eigenvalue GAMMA=   1.6598
  2.5275  2.5275  1.6840  1.5068  1.1273  1.1229  1.1229

 Free energy of the ion-electron system (eV)
  ---------------------------------------------------
  alpha Z        PSCENC =       296.55173223
  Ewald energy   TEWEN  =     -8963.34988360
  -Hartree energ DENC   =     -3437.05491029
  -exchange      EXHF   =         0.00000000
  -V(xc)+E(xc)   XCENC  =        36.55668783
  PAW double counting   =     11952.08950683   -11538.98550087
  entropy T*S    EENTRO =        -0.00000000
  eigenvalues    EBANDS =     -1062.05115568
  atomic energy  EATOM  =     12659.59018207
  Solvation  Ediel_sol  =         0.00000000
  ---------------------------------------------------
  free energy    TOTEN  =       -56.65334147 eV

  energy without entropy =      -56.65334147  energy(sigma->0) =      -56.65334147


--------------------------------------------------------------------------------------------------------




--------------------------------------- Iteration      1(  13)  ---------------------------------------


    POTLOK:  cpu time    0.0900: real time    0.1083
    SETDIJ:  cpu time    0.0060: real time    0.0059
     EDDAV:  cpu time   38.9091: real time   39.1333
       DOS:  cpu time    0.0140: real time    0.0227
    CHARGE:  cpu time    2.4756: real time    2.4837
    MIXING:  cpu time    0.0040: real time    0.0039
    --------------------------------------------
      LOOP:  cpu time   41.4977: real time   41.7579

 eigenvalue-minimisations  : 16104
 total energy-change (2. order) :-0.7586889E-04  (-0.1202035E-04)
 number of electron     176.0000031 magnetization 
 augmentation part       -5.8339842 magnetization 

 Broyden mixing:
  rms(total) = 0.22729E-02    rms(broyden)= 0.22729E-02
  rms(prec ) = 0.23672E-02
  weight for this iteration     100.00

 eigenvalues of (default mixing * dielectric matrix)
  average eigenvalue GAMMA=   1.6098
  2.8749  2.1390  1.7145  1.4193  1.4193  1.0143  1.1484  1.1484

 Free energy of the ion-electron system (eV)
  ---------------------------------------------------
  alpha Z        PSCENC =       296.55173223
  Ewald energy   TEWEN  =     -8963.34988360
  -Hartree energ DENC   =     -3437.14321147
  -exchange      EXHF   =         0.00000000
  -V(xc)+E(xc)   XCENC  =        36.56756180
  PAW double counting   =     11947.76370175   -11534.69290924
  entropy T*S    EENTRO =        -0.00000000
  eigenvalues    EBANDS =     -1061.94059088
  atomic energy  EATOM  =     12659.59018207
  Solvation  Ediel_sol  =         0.00000000
  ---------------------------------------------------
  free energy    TOTEN  =       -56.65341734 eV

  energy without entropy =      -56.65341734  energy(sigma->0) =      -56.65341734


--------------------------------------------------------------------------------------------------------




--------------------------------------- Iteration      1(  14)  ---------------------------------------


    POTLOK:  cpu time    0.0870: real time    0.1059
    SETDIJ:  cpu time    0.0060: real time    0.0060
     EDDAV:  cpu time   43.8593: real time   44.0974
       DOS:  cpu time    0.0140: real time    0.0196
    CHARGE:  cpu time    2.4426: real time    2.4594
    MIXING:  cpu time    0.0140: real time    0.0209
    --------------------------------------------
      LOOP:  cpu time   46.4239: real time   46.7091

 eigenvalue-minimisations  : 18840
 total energy-change (2. order) :-0.5823973E-05  (-0.1717912E-05)
 number of electron     176.0000031 magnetization 
 augmentation part       -5.8341216 magnetization 

 Broyden mixing:
  rms(total) = 0.10228E-02    rms(broyden)= 0.10228E-02
  rms(prec ) = 0.10591E-02
  weight for this iteration     100.00

 eigenvalues of (default mixing * dielectric matrix)
  average eigenvalue GAMMA=   1.6773
  3.0416  2.2767  2.2767  1.5762  1.5762  1.1987  1.1987  0.9753  0.9753

 Free energy of the ion-electron system (eV)
  ---------------------------------------------------
  alpha Z        PSCENC =       296.55173223
  Ewald energy   TEWEN  =     -8963.34988360
  -Hartree energ DENC   =     -3437.14122388
  -exchange      EXHF   =         0.00000000
  -V(xc)+E(xc)   XCENC  =        36.57263416
  PAW double counting   =     11949.48639331   -11536.42092051
  entropy T*S    EENTRO =        -0.00000000
  eigenvalues    EBANDS =     -1061.94233696
  atomic energy  EATOM  =     12659.59018207
  Solvation  Ediel_sol  =         0.00000000
  ---------------------------------------------------
  free energy    TOTEN  =       -56.65342317 eV

  energy without entropy =      -56.65342317  energy(sigma->0) =      -56.65342317


--------------------------------------------------------------------------------------------------------




--------------------------------------- Iteration      1(  15)  ---------------------------------------


    POTLOK:  cpu time    0.1000: real time    0.1059
    SETDIJ:  cpu time    0.0050: real time    0.0058
     EDDAV:  cpu time   37.5993: real time   37.7938
       DOS:  cpu time    0.0200: real time    0.0272
    CHARGE:  cpu time    2.4596: real time    2.4695
    MIXING:  cpu time    0.0040: real time    0.0042
    --------------------------------------------
      LOOP:  cpu time   40.1869: real time   40.4064

 eigenvalue-minimisations  : 15312
 total energy-change (2. order) :-0.1153348E-05  (-0.3760778E-06)
 number of electron     176.0000031 magnetization 
 augmentation part       -5.8341107 magnetization 

 Broyden mixing:
  rms(total) = 0.26046E-03    rms(broyden)= 0.26046E-03
  rms(prec ) = 0.27688E-03
  weight for this iteration     100.00

 eigenvalues of (default mixing * dielectric matrix)
  average eigenvalue GAMMA=   1.6444
  3.2143  2.5507  1.7163  1.7163  1.5309  1.5309  1.1325  1.1325  0.9599  0.9599

 Free energy of the ion-electron system (eV)
  ---------------------------------------------------
  alpha Z        PSCENC =       296.55173223
  Ewald energy   TEWEN  =     -8963.34988360
  -Hartree energ DENC   =     -3437.15628467
  -exchange      EXHF   =         0.00000000
  -V(xc)+E(xc)   XCENC  =        36.57332178
  PAW double counting   =     11949.48231753   -11536.41610182
  entropy T*S    EENTRO =        -0.00000000
  eigenvalues    EBANDS =     -1061.92870785
  atomic energy  EATOM  =     12659.59018207
  Solvation  Ediel_sol  =         0.00000000
  ---------------------------------------------------
  free energy    TOTEN  =       -56.65342432 eV

  energy without entropy =      -56.65342432  energy(sigma->0) =      -56.65342432


--------------------------------------------------------------------------------------------------------




--------------------------------------- Iteration      1(  16)  ---------------------------------------


    POTLOK:  cpu time    0.0910: real time    0.1074
    SETDIJ:  cpu time    0.0060: real time    0.0060
     EDDAV:  cpu time   37.7413: real time   37.9456
       DOS:  cpu time    0.0080: real time    0.0079
    CHARGE:  cpu time    2.4546: real time    2.4658
    MIXING:  cpu time    0.0160: real time    0.0679
    --------------------------------------------
      LOOP:  cpu time   40.3179: real time   40.6007

 eigenvalue-minimisations  : 15432
 total energy-change (2. order) : 0.4426984E-06  (-0.4039900E-07)
 number of electron     176.0000031 magnetization 
 augmentation part       -5.8341350 magnetization 

 Broyden mixing:
  rms(total) = 0.20550E-03    rms(broyden)= 0.20550E-03
  rms(prec ) = 0.21193E-03
  weight for this iteration     100.00

 eigenvalues of (default mixing * dielectric matrix)
  average eigenvalue GAMMA=   1.5391
  3.2113  2.4857  1.7084  1.7084  1.5291  1.5291  1.1614  1.1614  0.9637  0.9637
  0.5082

 Free energy of the ion-electron system (eV)
  ---------------------------------------------------
  alpha Z        PSCENC =       296.55173223
  Ewald energy   TEWEN  =     -8963.34988360
  -Hartree energ DENC   =     -3437.15875937
  -exchange      EXHF   =         0.00000000
  -V(xc)+E(xc)   XCENC  =        36.57301055
  PAW double counting   =     11949.04758117   -11535.98154188
  entropy T*S    EENTRO =        -0.00000000
  eigenvalues    EBANDS =     -1061.92574503
  atomic energy  EATOM  =     12659.59018207
  Solvation  Ediel_sol  =         0.00000000
  ---------------------------------------------------
  free energy    TOTEN  =       -56.65342388 eV

  energy without entropy =      -56.65342388  energy(sigma->0) =      -56.65342388


--------------------------------------------------------------------------------------------------------




--------------------------------------- Iteration      1(  17)  ---------------------------------------


    POTLOK:  cpu time    0.0970: real time    0.1056
    SETDIJ:  cpu time    0.0060: real time    0.0059
     EDDAV:  cpu time   29.5445: real time   29.6945
       DOS:  cpu time    0.0150: real time    0.0214
    --------------------------------------------
      LOOP:  cpu time   29.6615: real time   29.8274

 eigenvalue-minimisations  : 10656
 total energy-change (2. order) : 0.9813448E-08  (-0.2405601E-08)
 number of electron     176.0000031 magnetization 
 augmentation part       -5.8341350 magnetization 

 Free energy of the ion-electron system (eV)
  ---------------------------------------------------
  alpha Z        PSCENC =       296.55173223
  Ewald energy   TEWEN  =     -8963.34988360
  -Hartree energ DENC   =     -3437.15862805
  -exchange      EXHF   =         0.00000000
  -V(xc)+E(xc)   XCENC  =        36.57303852
  PAW double counting   =     11949.03580611   -11535.96976802
  entropy T*S    EENTRO =        -0.00000000
  eigenvalues    EBANDS =     -1061.92590312
  atomic energy  EATOM  =     12659.59018207
  Solvation  Ediel_sol  =         0.00000000
  ---------------------------------------------------
  free energy    TOTEN  =       -56.65342387 eV

  energy without entropy =      -56.65342387  energy(sigma->0) =      -56.65342387


--------------------------------------------------------------------------------------------------------




 average (electrostatic) potential at core
  the test charge radii are     1.1541  1.1875  1.1312
  (the norm of the test charge is              1.0000)
       1 -94.7240       2 -94.7240       3 -94.7240       4 -94.7240       5 -92.7282
       6 -92.7282       7 -92.7282       8 -92.7282       9 -92.4875      10 -92.4875
      11 -92.4874      12 -92.4875      13 -92.8865      14 -92.8865      15 -92.8865
      16 -92.8865      17 -48.1855      18 -48.1855      19 -48.1855      20 -48.1855
 
 
 
 E-fermi :   2.7769     XC(G=0):  -7.9116     alpha+bet : -8.3336


 k-point     1 :       0.0000    0.0000    0.0000
  band No.  band energies     occupation 
      1     -18.4602      2.00000
      2     -18.4598      2.00000
      3     -18.4584      2.00000
      4     -18.4580      2.00000
      5     -14.1770      2.00000
      6     -14.1768      2.00000
      7     -14.1680      2.00000
      8     -14.1680      2.00000
      9     -14.1663      2.00000
     10     -14.1662      2.00000
     11     -14.1662      2.00000
     12     -14.1662      2.00000
     13     -14.1587      2.00000
     14     -14.1586      2.00000
     15     -14.1559      2.00000
     16     -14.1559      2.00000
     17     -14.1452      2.00000
     18     -14.1452      2.00000
     19     -14.1424      2.00000
     20     -14.1424      2.00000
     21     -14.1299      2.00000
     22     -14.1298      2.00000
     23     -14.1244      2.00000
     24     -14.1244      2.00000
     25      -9.8942      2.00000
     26      -9.8663      2.00000
     27      -9.5773      2.00000
     28      -9.4839      2.00000
     29      -9.4380      2.00000
     30      -9.4380      2.00000
     31      -9.4251      2.00000
     32      -9.3858      2.00000
     33      -9.1500      2.00000
     34      -9.1084      2.00000
     35      -9.0994      2.00000
     36      -9.0298      2.00000
     37      -5.3537      2.00000
     38      -5.3510      2.00000
     39      -5.3445      2.00000
     40      -5.3325      2.00000
     41      -5.3072      2.00000
     42      -5.2665      2.00000
     43      -5.2412      2.00000
     44      -5.2382      2.00000
     45      -5.2358      2.00000
     46      -5.2319      2.00000
     47      -5.2259      2.00000
     48      -5.2233      2.00000
     49      -5.0787      2.00000
     50      -5.0464      2.00000
     51      -4.9948      2.00000
     52      -4.8596      2.00000
     53      -0.8822      2.00000
     54      -0.6263      2.00000
     55      -0.2100      2.00000
     56      -0.0543      2.00000
     57      -0.0382      2.00000
     58       0.0367      2.00000
     59       0.0660      2.00000
     60       0.1810      2.00000
     61       0.2202      2.00000
     62       0.3133      2.00000
     63       0.3622      2.00000
[...]
     52      -5.2544      2.00000
     53      -0.8393      2.00000
     54      -0.8393      2.00000
     55      -0.8204      2.00000
     56      -0.8204      2.00000
     57      -0.4656      2.00000
     58      -0.4656      2.00000
     59      -0.4413      2.00000
     60      -0.4413      2.00000
     61      -0.1034      2.00000
     62      -0.1034      2.00000
     63      -0.0318      2.00000
     64      -0.0318      2.00000
     65       0.3383      2.00000
     66       0.3383      2.00000
     67       0.4831      2.00000
     68       0.4831      2.00000
     69       0.7057      2.00000
     70       0.7057      2.00000
     71       0.8058      2.00000
     72       0.8058      2.00000
     73       0.8842      2.00000
     74       0.8842      2.00000
     75       0.9406      2.00000
     76       0.9406      2.00000
     77       0.9924      2.00000
     78       0.9924      2.00000
     79       1.1039      2.00000
     80       1.1039      2.00000
     81       1.1415      2.00000
     82       1.1415      2.00000
     83       1.2422      2.00000
     84       1.2422      2.00000
     85       1.6431      2.00000
     86       1.6431      2.00000
     87       1.7843      2.00000
     88       1.7843      2.00000
     89       5.3091      0.00000
     90       5.3091      0.00000
     91       5.3723      0.00000
     92       5.3723      0.00000
     93       5.6330      0.00000
     94       5.6330      0.00000
     95       5.7982      0.00000
     96       5.7982      0.00000
     97       6.0610      0.00000
     98       6.0610      0.00000
     99       6.1128      0.00000
    100       6.1128      0.00000
    101       7.3425      0.00000
    102       7.3425      0.00000
    103       7.4580      0.00000
    104       7.4580      0.00000
    105       7.7493      0.00000
    106       7.7493      0.00000
    107       7.8352      0.00000
    108       7.8352      0.00000
    109       8.0066      0.00000
    110       8.0066      0.00000
    111       8.0929      0.00000
    112       8.0929      0.00000
    113       8.4024      0.00000
    114       8.4024      0.00000
    115       8.5402      0.00000
    116       8.5402      0.00000
    117       8.7468      0.00000
    118       8.7468      0.00000
    119       8.8351      0.00000
    120       8.8351      0.00000

 k-point    56 :       0.5000    0.5000    0.3333
  band No.  band energies     occupation 
      1     -18.4456      2.00000
      2     -18.4456      2.00000
      3     -18.4456      2.00000
      4     -18.4456      2.00000
      5     -14.1916      2.00000
      6     -14.1916      2.00000
      7     -14.1916      2.00000
      8     -14.1916      2.00000
      9     -14.1643      2.00000
     10     -14.1643      2.00000
     11     -14.1642      2.00000
     12     -14.1642      2.00000
     13     -14.1448      2.00000
     14     -14.1448      2.00000
     15     -14.1448      2.00000
     16     -14.1448      2.00000
     17     -14.1409      2.00000
     18     -14.1409      2.00000
     19     -14.1409      2.00000
     20     -14.1409      2.00000
     21     -14.1292      2.00000
     22     -14.1292      2.00000
     23     -14.1292      2.00000
     24     -14.1292      2.00000
     25      -9.4699      2.00000
     26      -9.4699      2.00000
     27      -9.4699      2.00000
     28      -9.4699      2.00000
     29      -9.2456      2.00000
     30      -9.2456      2.00000
     31      -9.2456      2.00000
     32      -9.2456      2.00000
     33      -9.1325      2.00000
     34      -9.1325      2.00000
     35      -9.1325      2.00000
     36      -9.1325      2.00000
     37      -5.5011      2.00000
     38      -5.5011      2.00000
     39      -5.5011      2.00000
     40      -5.5011      2.00000
     41      -5.3999      2.00000
     42      -5.3999      2.00000
     43      -5.3999      2.00000
     44      -5.3999      2.00000
     45      -5.2908      2.00000
     46      -5.2908      2.00000
     47      -5.2908      2.00000
     48      -5.2908      2.00000
     49      -5.2601      2.00000
     50      -5.2601      2.00000
     51      -5.2601      2.00000
     52      -5.2601      2.00000
     53      -0.7564      2.00000
     54      -0.7564      2.00000
     55      -0.7564      2.00000
     56      -0.7564      2.00000
     57      -0.5350      2.00000
     58      -0.5350      2.00000
     59      -0.5350      2.00000
     60      -0.5350      2.00000
     61      -0.0647      2.00000
     62      -0.0647      2.00000
     63      -0.0647      2.00000
     64      -0.0647      2.00000
     65       0.3469      2.00000
     66       0.3469      2.00000
     67       0.3469      2.00000
     68       0.3469      2.00000
     69       0.7812      2.00000
     70       0.7812      2.00000
     71       0.7812      2.00000
     72       0.7812      2.00000
     73       0.9251      2.00000
     74       0.9251      2.00000
     75       0.9251      2.00000
     76       0.9251      2.00000
     77       1.0313      2.00000
     78       1.0313      2.00000
     79       1.0313      2.00000
     80       1.0313      2.00000
     81       1.1982      2.00000
     82       1.1982      2.00000
     83       1.1982      2.00000
     84       1.1982      2.00000
     85       1.7777      2.00000
     86       1.7777      2.00000
     87       1.7777      2.00000
     88       1.7777      2.00000
     89       5.3114      0.00000
     90       5.3114      0.00000
     91       5.3114      0.00000
     92       5.3114      0.00000
     93       5.6803      0.00000
     94       5.6803      0.00000
     95       5.6803      0.00000
     96       5.6803      0.00000
     97       6.1090      0.00000
     98       6.1090      0.00000
     99       6.1090      0.00000
    100       6.1090      0.00000
    101       7.4460      0.00000
    102       7.4460      0.00000
    103       7.4460      0.00000
    104       7.4460      0.00000
    105       7.8042      0.00000
    106       7.8042      0.00000
    107       7.8042      0.00000
    108       7.8042      0.00000
    109       7.9860      0.00000
    110       7.9860      0.00000
    111       7.9860      0.00000
    112       7.9860      0.00000
    113       8.4160      0.00000
    114       8.4160      0.00000
    115       8.4160      0.00000
    116       8.4160      0.00000
    117       8.8832      0.00000
    118       8.8832      0.00000
    119       8.8832      0.00000
    120       8.8832      0.00000


--------------------------------------------------------------------------------------------------------


 soft charge-density along one line, spin component           1
         0         1         2         3         4         5         6         7         8         9
 total charge-density along one line
 
 pseudopotential strength for first ion, spin component:           1
-15.433  -0.001  -0.000  -0.000   0.000   4.639   0.001   0.000
 -0.001 -15.429  -0.000   0.000   0.000   0.001   4.636   0.000
 -0.000  -0.000 -15.427  -0.008   0.005   0.000   0.000   4.634
 -0.000   0.000  -0.008 -15.432  -0.007   0.000  -0.000   0.005
  0.000   0.000   0.005  -0.007 -15.441  -0.000  -0.000  -0.003
  4.639   0.001   0.000   0.000  -0.000   5.421  -0.001  -0.000
  0.001   4.636   0.000  -0.000  -0.000  -0.001   5.423  -0.000
  0.000   0.000   4.634   0.005  -0.003  -0.000  -0.000   5.424
  0.000  -0.000   0.005   4.638   0.005  -0.000   0.000  -0.003
 -0.000  -0.000  -0.003   0.005   4.644   0.000   0.000   0.002
 -0.000   0.000  -0.000   0.000   0.001  -0.000   0.000  -0.001
  0.000  -0.000  -0.000   0.000  -0.001   0.000  -0.000   0.002
  0.003  -0.004  -0.000  -0.000  -0.000  -0.001   0.001  -0.000
 -0.000   0.000  -0.004   0.003   0.000  -0.000   0.000   0.000
  0.000  -0.000  -0.002  -0.004   0.003   0.000  -0.000   0.000
  0.006  -0.007  -0.000  -0.000  -0.000  -0.000   0.000  -0.000
 -0.000   0.000  -0.008   0.006   0.000  -0.000   0.000   0.000
  0.000  -0.000  -0.003  -0.007   0.006   0.000  -0.000   0.000
 total augmentation occupancy for first ion, spin component:           1
  2.000  -0.000   0.000  -0.000   0.000  -0.002  -0.001   0.000  -0.000   0.000  -0.000   0.000  -0.007   0.000   0.000   0.003
 -0.000   2.000   0.000   0.000   0.000  -0.001  -0.001   0.000   0.000   0.000   0.000  -0.000   0.006   0.000   0.000  -0.004
  0.000   0.000   2.000   0.000  -0.000   0.000   0.000  -0.001   0.001  -0.000  -0.000   0.000   0.000   0.009   0.002  -0.000
 -0.000   0.000   0.000   2.000   0.000  -0.000   0.000   0.001  -0.001   0.000   0.000  -0.001   0.000  -0.009   0.008   0.000
  0.000   0.000  -0.000   0.000   2.001   0.000  -0.000  -0.000   0.000   0.000   0.000  -0.000   0.000   0.001  -0.006  -0.000
 -0.002  -0.001   0.000  -0.000   0.000   0.017   0.007   0.000   0.000  -0.000   0.000   0.000   0.004   0.000   0.000  -0.000
 -0.001  -0.001   0.000   0.000  -0.000   0.007   0.008   0.000   0.000   0.000   0.000   0.000   0.005   0.000   0.000  -0.000
  0.000   0.000  -0.001   0.001  -0.000   0.000   0.000   0.013  -0.009   0.003  -0.001   0.001   0.000  -0.019   0.011   0.000
 -0.000   0.000   0.001  -0.001   0.000   0.000   0.000  -0.009   0.012  -0.003   0.001  -0.001  -0.000   0.025  -0.011   0.000
  0.000   0.000  -0.000   0.000   0.000  -0.000   0.000   0.003  -0.003   0.005   0.003  -0.001  -0.000  -0.008   0.002   0.000
 -0.000   0.000  -0.000   0.000   0.000   0.000   0.000  -0.001   0.001   0.003   2.070  -0.025   0.000   0.033  -0.031   0.000
  0.000  -0.000   0.000  -0.001  -0.000   0.000   0.000   0.001  -0.001  -0.001  -0.025   0.009   0.000  -0.011   0.009   0.000
 -0.007   0.006   0.000   0.000   0.000   0.004   0.005   0.000  -0.000  -0.000   0.000   0.000   0.630   0.000   0.000  -0.048
  0.000   0.000   0.009  -0.009   0.001   0.000   0.000  -0.019   0.025  -0.008   0.033  -0.011   0.000   0.665  -0.032   0.000
  0.000   0.000   0.002   0.008  -0.006   0.000   0.000   0.011  -0.011   0.002  -0.031   0.009   0.000  -0.032   0.616   0.000
  0.003  -0.004  -0.000   0.000  -0.000  -0.000  -0.000   0.000   0.000   0.000   0.000   0.000  -0.048   0.000   0.000   0.004
 -0.000   0.000  -0.004   0.002   0.000   0.000   0.000   0.001  -0.002   0.001  -0.003   0.001   0.000  -0.050   0.002   0.000
  0.000   0.000  -0.003  -0.004   0.004   0.000   0.000  -0.001   0.001  -0.000   0.002  -0.001   0.000   0.002  -0.045   0.000


------------------------ aborting loop because EDIFF is reached ----------------------------------------


    CHARGE:  cpu time    2.4806: real time    2.4877
    FORLOC:  cpu time    0.0100: real time    0.0097
    FORNL :  cpu time    7.9508: real time    7.9705
    STRESS:  cpu time   21.4077: real time   21.4660
    FORCOR:  cpu time    0.0890: real time    0.1018
    FORHAR:  cpu time    0.0240: real time    0.0234
    MIXING:  cpu time    0.0030: real time    0.0035
    OFIELD:  cpu time    0.0000: real time    0.0001

  FORCE on cell =-STRESS in cart. coord.  units (eV):
  Direction    XX          YY          ZZ          XY          YZ          ZX
  --------------------------------------------------------------------------------------
  Alpha Z   296.55173   296.55173   296.55173
  Ewald   -3120.76849 -2509.95250 -3333.10209    -0.00001     0.00000    -0.00015
  Hartree  1052.64112  1568.15709   815.93382    -0.00000    -0.00000     0.00001
  E(xc)    -729.56726  -729.35748  -729.31880     0.00000    -0.00000    -0.00000
  Local   -1436.36655 -2558.08941  -985.26395     0.00001    -0.00000     0.00013
  n-local  1992.34180  1991.97737  1994.12888    -0.24828    -0.02713     0.00793
  augment    -5.26186    -3.71487    -4.00454     0.00000     0.00000     0.00000
  Kinetic  1956.66049  1950.68513  1951.13635    -0.11579    -0.01191     0.00297
  Fock        0.00000     0.00000     0.00000     0.00000     0.00000     0.00000
  -------------------------------------------------------------------------------------
  Total       6.23098     6.25706     6.06141     0.00000     0.00000     0.00000
  in kB      11.24500    11.29207    10.93898     0.00000     0.00000     0.00000
  external pressure =       11.16 kB  Pullay stress =        0.00 kB


 VOLUME and BASIS-vectors are now :
 -----------------------------------------------------------------------------
  energy-cutoff  :      520.00
  volume of cell :      887.78
      direct lattice vectors                 reciprocal lattice vectors
    10.434200287  0.000000000  0.000000000     0.095838682  0.000000000  0.000000000
     0.000000000  4.790500164  0.000000000     0.000000000  0.208746470  0.000000000
     0.000000000  0.000000000 17.760999680     0.000000000  0.000000000  0.056303137

  length of vectors
    10.434200287  4.790500164 17.760999680     0.095838682  0.208746470  0.056303137


 FORCES acting on ions
    electron-ion (+dipol)            ewald-force                    non-local-force                 convergence-correction
 -----------------------------------------------------------------------------------------------
   -.625E+02 -.482E-04 0.527E+02   0.608E+02 -.183E-04 -.507E+02   0.169E+01 -.434E-18 -.191E+01   -.487E-03 -.520E-08 -.123E-02
   0.625E+02 0.541E-04 -.527E+02   -.608E+02 0.183E-04 0.507E+02   -.169E+01 0.434E-18 0.191E+01   0.487E-03 -.247E-08 0.123E-02
   0.625E+02 0.228E-03 0.527E+02   -.608E+02 0.183E-04 -.507E+02   -.169E+01 0.000E+00 -.191E+01   0.487E-03 0.252E-08 -.123E-02
   -.625E+02 0.126E-03 -.527E+02   0.608E+02 -.183E-04 0.507E+02   0.169E+01 -.867E-18 0.191E+01   -.487E-03 -.204E-09 0.123E-02
   0.922E+02 0.676E-04 -.481E+02   -.939E+02 -.117E-04 0.487E+02   0.169E+01 0.000E+00 -.562E+00   0.824E-03 0.131E-08 -.906E-03
   -.922E+02 0.125E-03 0.481E+02   0.939E+02 0.117E-04 -.487E+02   -.169E+01 0.000E+00 0.562E+00   -.824E-03 0.841E-09 0.906E-03
   -.922E+02 0.872E-04 -.481E+02   0.939E+02 0.117E-04 0.487E+02   -.169E+01 -.434E-18 -.562E+00   -.824E-03 -.413E-09 -.906E-03
   0.922E+02 0.295E-04 0.481E+02   -.939E+02 -.117E-04 -.487E+02   0.169E+01 0.434E-18 0.562E+00   0.824E-03 0.541E-10 0.906E-03
   -.396E+02 0.240E-04 0.765E+02   0.404E+02 -.489E-05 -.780E+02   -.804E+00 -.867E-18 0.148E+01   -.125E-03 0.764E-09 0.389E-03
   0.396E+02 0.922E-04 -.765E+02   -.404E+02 0.489E-05 0.780E+02   0.804E+00 0.867E-18 -.148E+01   0.125E-03 0.633E-09 -.389E-03
   0.396E+02 0.133E-03 0.765E+02   -.404E+02 0.489E-05 -.780E+02   0.804E+00 -.867E-18 0.148E+01   0.125E-03 -.697E-09 0.389E-03
   -.396E+02 0.647E-04 -.765E+02   0.404E+02 -.489E-05 0.780E+02   -.804E+00 0.173E-17 -.148E+01   -.125E-03 -.567E-09 -.389E-03
   -.651E+02 0.335E-04 -.121E+03   0.663E+02 -.971E-05 0.123E+03   -.127E+01 -.867E-18 -.151E+01   -.549E-03 0.372E-10 0.113E-02
   0.651E+02 0.941E-04 0.121E+03   -.663E+02 0.971E-05 -.123E+03   0.127E+01 0.867E-18 0.151E+01   0.549E-03 0.666E-09 -.113E-02
   0.651E+02 0.110E-03 -.121E+03   -.663E+02 0.971E-05 0.123E+03   0.127E+01 -.867E-18 -.151E+01   0.549E-03 -.238E-09 0.113E-02
   -.651E+02 0.491E-04 0.121E+03   0.663E+02 -.971E-05 -.123E+03   -.127E+01 0.000E+00 0.151E+01   -.549E-03 -.867E-09 -.113E-02
   -.137E+00 0.535E-04 -.120E+02   0.235E+00 -.548E-05 0.122E+02   -.988E-01 -.217E-18 -.132E+00   0.235E-03 -.996E-09 0.106E-02
   0.136E+00 0.125E-03 0.120E+02   -.235E+00 0.548E-05 -.122E+02   0.988E-01 0.217E-18 0.132E+00   -.235E-03 -.150E-08 -.106E-02
   0.136E+00 0.107E-03 -.120E+02   -.235E+00 0.548E-05 0.122E+02   0.988E-01 -.434E-18 -.132E+00   -.235E-03 0.249E-09 0.106E-02
   -.137E+00 0.358E-04 0.120E+02   0.235E+00 -.548E-05 -.122E+02   -.988E-01 0.434E-18 0.132E+00   0.235E-03 0.749E-09 -.106E-02
 -----------------------------------------------------------------------------------------------
   -.250E-02 0.159E-02 0.919E-04   -.185E-13 0.171E-14 -.213E-13   -.458E-15 -.867E-18 0.500E-15   -.363E-07 -.532E-08 0.109E-07
 
 
 POSITION                                       TOTAL-FORCE (eV/Angst)
 -----------------------------------------------------------------------------------
      1.68102      1.19763      7.79506         0.000033      0.000000      0.000669
      8.75318      3.59288      9.96594        -0.000033      0.000000     -0.000669
      3.53608      3.59288     16.67556        -0.000033      0.000000      0.000669
      6.89812      1.19763      1.08544         0.000033     -0.000000     -0.000669
      1.66922      1.19763      0.03708        -0.000238      0.000000     -0.000505
      8.76499      3.59288     17.72392         0.000238     -0.000000      0.000505
      3.54788      3.59288      8.91758         0.000238     -0.000000     -0.000505
      6.88632      1.19763      8.84342        -0.000238      0.000000      0.000505
      3.13440      1.19763      5.05872        -0.000017     -0.000000     -0.000300
      7.29980      3.59288     12.70228         0.000017      0.000000      0.000300
      2.08270      3.59288     13.93922         0.000017     -0.000000     -0.000300
      8.35150      1.19763      3.82178        -0.000017      0.000000      0.000300
      0.35275      1.19763     10.89728        -0.000527      0.000000     -0.000602
     10.08145      3.59288      6.86372         0.000527      0.000000      0.000602
      4.86435      3.59288      2.01678         0.000527      0.000000     -0.000602
      5.56985      1.19763     15.74422        -0.000527      0.000000      0.000602
      4.35317      1.19763     11.93493         0.000017     -0.000000      0.000038
      6.08103      3.59288      5.82607        -0.000017      0.000000     -0.000038
      0.86393      3.59288      3.05443        -0.000017     -0.000000      0.000038
      9.57027      1.19763     14.70657         0.000017      0.000000     -0.000038
 -----------------------------------------------------------------------------------
    total drift:                               -0.002504      0.001591      0.000092


--------------------------------------------------------------------------------------------------------



  FREE ENERGIE OF THE ION-ELECTRON SYSTEM (eV)
  ---------------------------------------------------
  free  energy   TOTEN  =       -56.65347941 eV

  energy  without entropy=      -56.65347941  energy(sigma->0) =      -56.65347941
 
 d Force = 0.1488990E-05[-0.347E-06, 0.332E-05]  d Energy = 0.7960880E-06 0.693E-06
 d Force = 0.2750283E+00[ 0.275E+00, 0.275E+00]  d Ewald  = 0.2750283E+00-0.287E-08


--------------------------------------------------------------------------------------------------------


    POTLOK:  cpu time    0.0860: real time    0.0879


--------------------------------------------------------------------------------------------------------




--------------------------------------------------------------------------------------------------------


  
 reached required accuracy - stopping structural energy minimisation
 writing wavefunctions
     LOOP+:  cpu time  205.9177: real time  228.3962
    4ORBIT:  cpu time    0.0000: real time    0.0000

 total amount of memory used by VASP MPI-rank0   401244. kBytes
=======================================================================

   base      :      30000. kBytes
   nonl-proj :     294732. kBytes
   fftplans  :       8570. kBytes
   grid      :      13275. kBytes
   one-center:        155. kBytes
   wavefun   :      54512. kBytes
 
  
  
 General timing and accounting informations for this job:
 ========================================================
  
                  Total CPU time used (sec):     3285.052
                            User time (sec):     3223.955
                          System time (sec):       61.097
                         Elapsed time (sec):     3329.779
  
                   Maximum memory used (kb):      535972.
                   Average memory used (kb):           0.
  
                          Minor page faults:       672413
                          Major page faults:          341
                 Voluntary context switches:       133044
