 vasp.5.4.4.18Apr17-6-g9f103f2a35 (build Jun 20 2018 15:01:45) complex          
  
 executed on             LinuxIFC date 2019.11.03  23:02:49
 running on   48 total cores
 distrk:  each k-point on   48 cores,    1 groups
 distr:  one band on NCORES_PER_BAND=   2 cores,   24 groups


--------------------------------------------------------------------------------------------------------


 INCAR:
 POTCAR:    PAW_PBE I 08Apr2002                   
 POTCAR:    PAW_PBE Pb_d 06Sep2000                
 POTCAR:    PAW_PBE Cs_sv 08Apr2002               

 ----------------------------------------------------------------------------- 
|                                                                             |
|           W    W    AA    RRRRR   N    N  II  N    N   GGGG   !!!           |
|           W    W   A  A   R    R  NN   N  II  NN   N  G    G  !!!           |
|           W    W  A    A  R    R  N N  N  II  N N  N  G       !!!           |
|           W WW W  AAAAAA  RRRRR   N  N N  II  N  N N  G  GGG   !            |
|           WW  WW  A    A  R   R   N   NN  II  N   NN  G    G                |
|           W    W  A    A  R    R  N    N  II  N    N   GGGG   !!!           |
|                                                                             |
|      For optimal performance we recommend to set                            |
|        NCORE= 4 - approx SQRT( number of cores)                             |
|      NCORE specifies how many cores store one orbital (NPAR=cpu/NCORE).     |
|      This setting can  greatly improve the performance of VASP for DFT.     |
|      The default,   NCORE=1            might be grossly inefficient         |
|      on modern multi-core architectures or massively parallel machines.     |
|      Do your own testing !!!!                                               |
|      Unfortunately you need to use the default for GW and RPA calculations. |
|      (for HF NCORE is supported but not extensively tested yet)             |
|                                                                             |
 ----------------------------------------------------------------------------- 

 POTCAR:    PAW_PBE I 08Apr2002                   
   VRHFIN =I : s2p5                                                             
   LEXCH  = PE                                                                  
   EATOM  =   315.8678 eV,   23.2156 Ry                                         
                                                                                
   TITEL  = PAW_PBE I 08Apr2002                                                 
   LULTRA =        F    use ultrasoft PP ?                                      
   IUNSCR =        1    unscreen: 0-lin 1-nonlin 2-no                           
   RPACOR =    2.200    partial core radius                                     
   POMASS =  126.904; ZVAL   =    7.000    mass and valenz                      
   RCORE  =    2.300    outmost cutoff radius                                   
   RWIGS  =    2.810; RWIGS  =    1.487    wigner-seitz radius (au A)           
   ENMAX  =  175.647; ENMIN  =  131.735 eV                                      
   ICORE  =        3    local potential                                         
   LCOR   =        T    correct aug charges                                     
   LPAW   =        T    paw PP                                                  
   EAUG   =  370.139                                                            
   DEXC   =    0.000                                                            
   RMAX   =    2.359    core radius for proj-oper                               
   RAUG   =    1.300    factor for augmentation sphere                          
   RDEP   =    2.392    radius for radial grids                                 
   RDEPT  =    2.170    core radius for aug-charge                              
                                                                                
   Atomic configuration                                                         
   13 entries                                                                   
     n  l   j            E        occ.                                          
     1  0  0.50    -32976.3739   2.0000                                         
     2  0  0.50     -5094.5933   2.0000                                         
     2  1  1.50     -4572.0131   6.0000                                         
     3  0  0.50     -1028.2813   2.0000                                         
     3  1  1.50      -859.0250   6.0000                                         
     3  2  2.50      -605.7620  10.0000                                         
     4  0  0.50      -180.5540   2.0000                                         
     4  1  1.50      -127.5306   6.0000                                         
     4  2  2.50       -50.2720  10.0000                                         
     5  0  0.50       -17.4058   2.0000                                         
     5  1  0.50        -7.0851   5.0000                                         
     5  2  1.50        -7.0750   0.0000                                         
     4  3  2.50        -7.0750   0.0000                                         
   Description                                                                  
     l       E           TYP  RCUT    TYP  RCUT                                 
     0    -17.4058016     23  2.300                                             
     0    -18.7663842     23  2.300                                             
     1     -7.0850686     23  2.300                                             
     1     -4.2150896     23  2.300                                             
     2     -7.0750295     23  2.300                                             
     3     -1.3605826     23  2.300                                             
  local pseudopotential read in
  partial core-charges read in
  partial kinetic energy density read in
  atomic valenz-charges read in
  non local Contribution for L=           0  read in
    real space projection operators read in
  non local Contribution for L=           0  read in
    real space projection operators read in
  non local Contribution for L=           1  read in
    real space projection operators read in
  non local Contribution for L=           1  read in
    real space projection operators read in
  non local Contribution for L=           2  read in
    real space projection operators read in
    PAW grid and wavefunctions read in
 
   number of l-projection  operators is LMAX  =           5
   number of lm-projection operators is LMMAX =          13
 
 POTCAR:    PAW_PBE Pb_d 06Sep2000                
   VRHFIN =Pb:                                                                  
   LEXCH  = PE                                                                  
   EATOM  =  1661.6185 eV,  122.1255 Ry                                         
                                                                                
   TITEL  = PAW_PBE Pb_d 06Sep2000                                              
   LULTRA =        F    use ultrasoft PP ?                                      
   IUNSCR =        1    unscreen: 0-lin 1-nonlin 2-no                           
   RPACOR =    2.200    partial core radius                                     
   POMASS =  207.200; ZVAL   =   14.000    mass and valenz                      
   RCORE  =    2.500    outmost cutoff radius                                   
   RWIGS  =    3.260; RWIGS  =    1.725    wigner-seitz radius (au A)           
   ENMAX  =  237.835; ENMIN  =  178.376 eV                                      
   ICORE  =        3    local potential                                         
   LCOR   =        T    correct aug charges                                     
   LPAW   =        T    paw PP                                                  
   EAUG   =  391.914                                                            
   DEXC   =    0.000                                                            
   RMAX   =    2.565    core radius for proj-oper                               
   RAUG   =    1.300    factor for augmentation sphere                          
   RDEP   =    2.643    radius for radial grids                                 
   RDEPT  =    2.092    core radius for aug-charge                              
                                                                                
   Atomic configuration                                                         
   16 entries                                                                   
     n  l   j            E        occ.                                          
     1  0  0.50    -88091.8466   2.0000                                         
     2  0  0.50    -15753.4197   2.0000                                         
     2  1  1.50    -13508.1797   6.0000                                         
     3  0  0.50     -3781.7194   2.0000                                         
     3  1  1.50     -3138.2529   6.0000                                         
     3  2  2.50     -2483.2977  10.0000                                         
     4  0  0.50      -856.2895   2.0000                                         
     4  1  1.50      -645.4942   6.0000                                         
     4  2  2.50      -401.8768  10.0000                                         
     4  3  3.50      -132.9059  14.0000                                         
     5  0  0.50      -144.0950   2.0000                                         
     5  1  1.50       -85.7879   6.0000                                         
     5  2  2.50       -21.1769  10.0000                                         
     6  0  0.50       -12.0372   2.0000                                         
     6  1  1.50        -3.4971   2.0000                                         
     5  3  2.50        -2.7212   0.0000                                         
   Description                                                                  
     l       E           TYP  RCUT    TYP  RCUT                                 
     2    -21.1768523     23  2.500                                             
     2      1.3605826     23  2.500                                             
     0    -12.0371562     23  2.500                                             
     0     13.6058260     23  2.500                                             
     1     -3.4971339     23  2.500                                             
     1     13.6058260     23  2.500                                             
     3     -1.3605826      7  2.500                                             
  local pseudopotential read in
  partial core-charges read in
  partial kinetic energy density read in
  atomic valenz-charges read in
  non local Contribution for L=           2  read in
    real space projection operators read in
  non local Contribution for L=           2  read in
    real space projection operators read in
  non local Contribution for L=           0  read in
    real space projection operators read in
  non local Contribution for L=           0  read in
    real space projection operators read in
  non local Contribution for L=           1  read in
    real space projection operators read in
  non local Contribution for L=           1  read in
    real space projection operators read in
    PAW grid and wavefunctions read in
 
   number of l-projection  operators is LMAX  =           6
   number of lm-projection operators is LMMAX =          18
 
 POTCAR:    PAW_PBE Cs_sv 08Apr2002               
   VRHFIN =Cs: 5s5p6s                                                           
   LEXCH  = PE                                                                  
   EATOM  =   555.6835 eV,   40.8416 Ry                                         
                                                                                
   TITEL  = PAW_PBE Cs_sv 08Apr2002                                             
   LULTRA =        F    use ultrasoft PP ?                                      
   IUNSCR =        1    unscreen: 0-lin 1-nonlin 2-no                           
   RPACOR =    2.200    partial core radius                                     
   POMASS =  132.900; ZVAL   =    9.000    mass and valenz                      
   RCORE  =    2.500    outmost cutoff radius                                   
   RWIGS  =    2.500; RWIGS  =    1.323    wigner-seitz radius (au A)           
   ENMAX  =  220.318; ENMIN  =  165.238 eV                                      
   RCLOC  =    2.207    cutoff for local pot                                    
   LCOR   =        T    correct aug charges                                     
   LPAW   =        T    paw PP                                                  
   EAUG   =  407.933                                                            
   DEXC   =    0.000                                                            
   RMAX   =    2.554    core radius for proj-oper                               
   RAUG   =    1.300    factor for augmentation sphere                          
   RDEP   =    2.590    radius for radial grids                                 
   RDEPT  =    2.117    core radius for aug-charge                              
                                                                                
   Atomic configuration                                                         
   13 entries                                                                   
     n  l   j            E        occ.                                          
     1  0  0.50    -35790.1377   2.0000                                         
     2  0  0.50     -5613.6201   2.0000                                         
     2  1  1.50     -5035.0101   6.0000                                         
     3  0  0.50     -1167.0767   2.0000                                         
     3  1  1.50      -980.9754   6.0000                                         
     3  2  2.50      -708.0703  10.0000                                         
     4  0  0.50      -220.2386   2.0000                                         
     4  1  1.50      -160.7596   6.0000                                         
     4  2  2.50       -74.2354  10.0000                                         
     5  0  0.50       -26.7287   2.0000                                         
     6  0  0.50        -2.0862   1.0000                                         
     5  1  1.50       -13.5159   6.0000                                         
     5  2  2.50        -0.4136   0.0000                                         
   Description                                                                  
     l       E           TYP  RCUT    TYP  RCUT                                 
     0    -26.7287425     23  1.900                                             
     0     -2.0862306     23  1.900                                             
     1    -13.5158719     23  2.500                                             
     1     -2.7211652     23  2.500                                             
     2     -0.4136171     23  2.500                                             
  local pseudopotential read in
  partial core-charges read in
  partial kinetic energy density read in
  atomic valenz-charges read in
  non local Contribution for L=           0  read in
    real space projection operators read in
  non local Contribution for L=           0  read in
    real space projection operators read in
  non local Contribution for L=           1  read in
    real space projection operators read in
  non local Contribution for L=           1  read in
    real space projection operators read in
  non local Contribution for L=           2  read in
    real space projection operators read in
    PAW grid and wavefunctions read in
 
   number of l-projection  operators is LMAX  =           5
   number of lm-projection operators is LMMAX =          13
 

 ----------------------------------------------------------------------------- 
|                                                                             |
|  ADVICE TO THIS USER RUNNING 'VASP/VAMP'   (HEAR YOUR MASTER'S VOICE ...):  |
|                                                                             |
|      You have a (more or less) 'large supercell' and for larger cells       |
|      it might be more efficient to use real space projection opertators     |
|      So try LREAL= Auto  in the INCAR   file.                               |
|      Mind:          For very  accurate calculation you might also keep the  |
|      reciprocal projection scheme          (i.e. LREAL=.FALSE.)             |
|                                                                             |
 ----------------------------------------------------------------------------- 

  PAW_PBE I 08Apr2002                   :
 energy of atom  1       EATOM= -315.8678
 kinetic energy error for atom=    0.0009 (will be added to EATOM!!)
  PAW_PBE Pb_d 06Sep2000                :
 energy of atom  2       EATOM=-1661.6185
 kinetic energy error for atom=    0.0037 (will be added to EATOM!!)
  PAW_PBE Cs_sv 08Apr2002               :
 energy of atom  3       EATOM= -555.6835
 kinetic energy error for atom=    0.0016 (will be added to EATOM!!)
 
 
 POSCAR: CsPbI3_325K                             
  positions in direct lattice
  velocities in cartesian coordinates
 exchange correlation table for  LEXCH =        8
   RHO(1)=    0.500       N(1)  =     2000
   RHO(2)=  100.500       N(2)  =     4000
 


--------------------------------------------------------------------------------------------------------


 ion  position               nearest neighbor table
   1  0.192  0.306  0.540-  14 3.21  13 3.21
   2  0.808  0.694  0.460-  14 3.21  13 3.21
   3  0.692  0.194  0.460-  13 3.21  14 3.21
   4  0.308  0.806  0.540-  13 3.21  14 3.21
   5  0.808  0.694  0.040-  16 3.21  15 3.21
   6  0.192  0.306  0.960-  16 3.21  15 3.21
   7  0.308  0.806  0.960-  15 3.21  16 3.21
   8  0.692  0.194  0.040-  15 3.21  16 3.21
   9  0.918  0.000  0.750-  15 3.21  13 3.21
  10  0.082  1.000  0.250-  13 3.21  15 3.21
  11  0.418  0.500  0.250-  14 3.21  16 3.21
  12  0.582  0.500  0.750-  16 3.21  14 3.21
  13  0.000  0.000  0.500-   3 3.21   4 3.21  10 3.21   9 3.21   1 3.21   2 3.21
  14  0.500  0.500  0.500-   2 3.21   1 3.21  11 3.21  12 3.21   3 3.21   4 3.21
  15  0.000  0.000  0.000-   8 3.21   7 3.21   9 3.21  10 3.21   6 3.21   5 3.21
  16  0.500  0.500  0.000-   5 3.21   6 3.21  12 3.21  11 3.21   8 3.21   7 3.21
  17  0.978  0.424  0.250-
  18  0.022  0.576  0.750-
  19  0.478  0.076  0.750-
  20  0.522  0.924  0.250-
 
  LATTYP: Found a simple orthorhombic cell.
 ALAT       =     8.6751003265
 B/A-ratio  =     1.0171640703
 C/A-ratio  =     1.4438795264
  
  Lattice vectors:
  
 A1 = (   8.6751003265,   0.0000000000,   0.0000000000)
 A2 = (   0.0000000000,   8.8240003586,   0.0000000000)
 A3 = (   0.0000000000,   0.0000000000,  12.5257997513)


Analysis of symmetry for initial positions (statically):
=====================================================================
 Subroutine PRICEL returns:
 Original cell was already a primitive cell.
 

 Routine SETGRP: Setting up the symmetry group for a 
 simple orthorhombic supercell.


 Subroutine GETGRP returns: Found  8 space group operations
 (whereof  2 operations were pure point group operations)
 out of a pool of  8 trial point group operations.


The static configuration has the point symmetry S_2 .
 The point group associated with its full space group is D_2h.


Analysis of symmetry for dynamics (positions and initial velocities):
=====================================================================
 Subroutine PRICEL returns:
 Original cell was already a primitive cell.
 

 Routine SETGRP: Setting up the symmetry group for a 
 simple orthorhombic supercell.


 Subroutine GETGRP returns: Found  8 space group operations
 (whereof  2 operations were pure point group operations)
 out of a pool of  8 trial point group operations.


The dynamic configuration has the point symmetry S_2 .
 The point group associated with its full space group is D_2h.


 Subroutine INISYM returns: Found  8 space group operations
 (whereof  2 operations are pure point group operations),
 and found     1 'primitive' translations

 
 
 KPOINTS: K-Mesh Generated with KP-Resolved Value 

Automatic generation of k-mesh.
Space group operators:
 irot       det(A)        alpha          n_x          n_y          n_z        tau_x        tau_y        tau_z
    1     1.000000     0.000000     1.000000     0.000000     0.000000     0.000000     0.000000     0.000000
    2    -1.000000     0.000000     1.000000     0.000000     0.000000     0.000000     0.000000     0.000000
    3     1.000000   180.000000     0.000000     0.000000     1.000000     0.000000     0.000000     0.500000
    4    -1.000000   180.000000     0.000000     0.000000     1.000000     0.000000     0.000000     0.500000
    5     1.000000   180.000000     0.000000     1.000000     0.000000     0.500000     0.500000     0.500000
    6    -1.000000   180.000000     0.000000     1.000000     0.000000     0.500000     0.500000     0.500000
    7     1.000000   179.999999     1.000000     0.000000     0.000000     0.500000     0.500000     0.000000
    8    -1.000000   179.999999     1.000000     0.000000     0.000000     0.500000     0.500000     0.000000
 
 Subroutine IBZKPT returns following result:
 ===========================================
 
 Found     48 irreducible k-points:
 
 Following reciprocal coordinates:
            Coordinates               Weight
  0.000000  0.000000  0.000000      1.000000
  0.166667  0.000000  0.000000      2.000000
  0.333333  0.000000  0.000000      2.000000
  0.500000  0.000000  0.000000      1.000000
  0.000000  0.166667  0.000000      2.000000
  0.166667  0.166667  0.000000      4.000000
  0.333333  0.166667  0.000000      4.000000
  0.500000  0.166667  0.000000      2.000000
  0.000000  0.333333  0.000000      2.000000
  0.166667  0.333333  0.000000      4.000000
  0.333333  0.333333  0.000000      4.000000
  0.500000  0.333333  0.000000      2.000000
  0.000000  0.500000  0.000000      1.000000
  0.166667  0.500000  0.000000      2.000000
  0.333333  0.500000  0.000000      2.000000
  0.500000  0.500000  0.000000      1.000000
  0.000000  0.000000  0.250000      2.000000
  0.166667  0.000000  0.250000      4.000000
  0.333333  0.000000  0.250000      4.000000
  0.500000  0.000000  0.250000      2.000000
  0.000000  0.166667  0.250000      4.000000
  0.166667  0.166667  0.250000      8.000000
  0.333333  0.166667  0.250000      8.000000
  0.500000  0.166667  0.250000      4.000000
  0.000000  0.333333  0.250000      4.000000
  0.166667  0.333333  0.250000      8.000000
  0.333333  0.333333  0.250000      8.000000
  0.500000  0.333333  0.250000      4.000000
  0.000000  0.500000  0.250000      2.000000
  0.166667  0.500000  0.250000      4.000000
  0.333333  0.500000  0.250000      4.000000
  0.500000  0.500000  0.250000      2.000000
  0.000000  0.000000  0.500000      1.000000
  0.166667  0.000000  0.500000      2.000000
  0.333333  0.000000  0.500000      2.000000
  0.500000  0.000000  0.500000      1.000000
  0.000000  0.166667  0.500000      2.000000
  0.166667  0.166667  0.500000      4.000000
  0.333333  0.166667  0.500000      4.000000
  0.500000  0.166667  0.500000      2.000000
  0.000000  0.333333  0.500000      2.000000
  0.166667  0.333333  0.500000      4.000000
  0.333333  0.333333  0.500000      4.000000
  0.500000  0.333333  0.500000      2.000000
  0.000000  0.500000  0.500000      1.000000
  0.166667  0.500000  0.500000      2.000000
  0.333333  0.500000  0.500000      2.000000
  0.500000  0.500000  0.500000      1.000000
 
 Following cartesian coordinates:
            Coordinates               Weight
  0.000000  0.000000  0.000000      1.000000
  0.019212  0.000000  0.000000      2.000000
  0.038424  0.000000  0.000000      2.000000
  0.057636  0.000000  0.000000      1.000000
  0.000000  0.018888  0.000000      2.000000
  0.019212  0.018888  0.000000      4.000000
  0.038424  0.018888  0.000000      4.000000
  0.057636  0.018888  0.000000      2.000000
  0.000000  0.037776  0.000000      2.000000
  0.019212  0.037776  0.000000      4.000000
  0.038424  0.037776  0.000000      4.000000
  0.057636  0.037776  0.000000      2.000000
  0.000000  0.056664  0.000000      1.000000
  0.019212  0.056664  0.000000      2.000000
  0.038424  0.056664  0.000000      2.000000
  0.057636  0.056664  0.000000      1.000000
  0.000000  0.000000  0.019959      2.000000
  0.019212  0.000000  0.019959      4.000000
  0.038424  0.000000  0.019959      4.000000
  0.057636  0.000000  0.019959      2.000000
  0.000000  0.018888  0.019959      4.000000
  0.019212  0.018888  0.019959      8.000000
  0.038424  0.018888  0.019959      8.000000
  0.057636  0.018888  0.019959      4.000000
  0.000000  0.037776  0.019959      4.000000
  0.019212  0.037776  0.019959      8.000000
  0.038424  0.037776  0.019959      8.000000
  0.057636  0.037776  0.019959      4.000000
  0.000000  0.056664  0.019959      2.000000
  0.019212  0.056664  0.019959      4.000000
  0.038424  0.056664  0.019959      4.000000
  0.057636  0.056664  0.019959      2.000000
  0.000000  0.000000  0.039918      1.000000
  0.019212  0.000000  0.039918      2.000000
  0.038424  0.000000  0.039918      2.000000
  0.057636  0.000000  0.039918      1.000000
  0.000000  0.018888  0.039918      2.000000
  0.019212  0.018888  0.039918      4.000000
  0.038424  0.018888  0.039918      4.000000
  0.057636  0.018888  0.039918      2.000000
  0.000000  0.037776  0.039918      2.000000
  0.019212  0.037776  0.039918      4.000000
  0.038424  0.037776  0.039918      4.000000
  0.057636  0.037776  0.039918      2.000000
  0.000000  0.056664  0.039918      1.000000
  0.019212  0.056664  0.039918      2.000000
  0.038424  0.056664  0.039918      2.000000
  0.057636  0.056664  0.039918      1.000000
 
 TETIRR: Found    432 inequivalent tetrahedra from      864


--------------------------------------------------------------------------------------------------------




 Dimension of arrays:
   k-points           NKPTS =     48   k-points in BZ     NKDIM =     48   number of bands    NBANDS=    120
   number of dos      NEDOS =   2000   number of ions     NIONS =     20
   non local maximal  LDIM  =      6   non local SUM 2l+1 LMDIM =     18
   total plane-waves  NPLWV = 470400
   max r-space proj   IRMAX =      1   max aug-charges    IRDMAX=  28575
   dimension x,y,z NGX =    70 NGY =   70 NGZ =   96
   dimension x,y,z NGXF=   140 NGYF=  140 NGZF=  192
   support grid    NGXF=   140 NGYF=  140 NGZF=  192
   ions per type =              12   4   4
   NGX,Y,Z   is equivalent  to a cutoff of  13.41, 13.19, 12.74 a.u.
   NGXF,Y,Z  is equivalent  to a cutoff of  26.83, 26.38, 25.48 a.u.

 SYSTEM =  diamond                                 
 POSCAR =  CsPbI3_325K                             

 Startparameter for this run:
   NWRITE =      2    write-flag & timer
   PREC   = accura    normal or accurate (medium, high low for compatibility)
   ISTART =      0    job   : 0-new  1-cont  2-samecut
   ICHARG =     11    charge: 1-file 2-atom 10-const
   ISPIN  =      1    spin polarized calculation?
   LNONCOLLINEAR =      F non collinear calculations
   LSORBIT =      F    spin-orbit coupling
   INIWAV =      1    electr: 0-lowe 1-rand  2-diag
   LASPH  =      F    aspherical Exc in radial PAW
   METAGGA=      F    non-selfconsistent MetaGGA calc.

 Electronic Relaxation 1
   ENCUT  =  520.0 eV  38.22 Ry    6.18 a.u.  16.13 16.41 23.29*2*pi/ulx,y,z
   ENINI  =  520.0     initial cutoff
   ENAUG  =  407.9 eV  augmentation charge cutoff
   NELM   =     60;   NELMIN=  2; NELMDL=  0     # of ELM steps 
   EDIFF  = 0.1E-05   stopping-criterion for ELM
   LREAL  =      F    real-space projection
   NLSPLINE    = F    spline interpolate recip. space projectors
   LCOMPAT=      F    compatible to vasp.4.4
   GGA_COMPAT  = T    GGA compatible to vasp.4.4-vasp.4.6
   LMAXPAW     = -100 max onsite density
   LMAXMIX     =    2 max onsite mixed and CHGCAR
   VOSKOWN=      0    Vosko Wilk Nusair interpolation
   ROPT   =    0.00000   0.00000   0.00000
 Ionic relaxation
   EDIFFG = 0.1E-04   stopping-criterion for IOM
   NSW    =      0    number of steps for IOM
   NBLOCK =      1;   KBLOCK =      1    inner block; outer block 
   IBRION =     -1    ionic relax: 0-MD 1-quasi-New 2-CG
   NFREE  =      1    steps in history (QN), initial steepest desc. (CG)
   ISIF   =      2    stress and relaxation
   IWAVPR =     10    prediction:  0-non 1-charg 2-wave 3-comb
   ISYM   =      2    0-nonsym 1-usesym 2-fastsym
   LCORR  =      T    Harris-Foulkes like correction to forces

   POTIM  = 0.1000    time-step for ionic-motion
   TEIN   =    0.0    initial temperature
   TEBEG  =    0.0;   TEEND  =   0.0 temperature during run
   SMASS  =  -3.00    Nose mass-parameter (am)
   estimated Nose-frequenzy (Omega)   =  0.10E-29 period in steps =****** mass=  -0.172E-26a.u.
   SCALEE = 1.0000    scale energy and forces
   NPACO  =    256;   APACO  = 16.0  distance and # of slots for P.C.
   PSTRESS=    0.0 pullay stress

  Mass of Ions in am
   POMASS = 126.90207.20132.90
  Ionic Valenz
   ZVAL   =   7.00 14.00  9.00
  Atomic Wigner-Seitz radii
   RWIGS  =  -1.00 -1.00 -1.00
  virtual crystal weights 
   VCA    =   1.00  1.00  1.00
   NELECT =     176.0000    total number of electrons
   NUPDOWN=      -1.0000    fix difference up-down

 DOS related values:
   EMIN   =  10.00;   EMAX   =-10.00  energy-range for DOS
   EFERMI =   0.00
   ISMEAR =    -5;   SIGMA  =   0.20  broadening in eV -4-tet -1-fermi 0-gaus

 Electronic relaxation 2 (details)
   IALGO  =     38    algorithm
   LDIAG  =      T    sub-space diagonalisation (order eigenvalues)
   LSUBROT=      F    optimize rotation matrix (better conditioning)
   TURBO    =      0    0=normal 1=particle mesh
   IRESTART =      0    0=no restart 2=restart with 2 vectors
   NREBOOT  =      0    no. of reboots
   NMIN     =      0    reboot dimension
   EREF     =   0.00    reference energy to select bands
   IMIX   =      4    mixing-type and parameters
     AMIX     =   0.40;   BMIX     =  1.00
     AMIX_MAG =   1.60;   BMIX_MAG =  1.00
     AMIN     =   0.10
     WC   =   100.;   INIMIX=   1;  MIXPRE=   1;  MAXMIX= -45

 Intra band minimization:
   WEIMIN = 0.0000     energy-eigenvalue tresh-hold
   EBREAK =  0.21E-08  absolut break condition
   DEPER  =   0.30     relativ break condition  

   TIME   =   0.40     timestep for ELM

  volume/ion in A,a.u.               =      47.94       323.53
  Fermi-wavevector in a.u.,A,eV,Ry     =   0.930388  1.758178 11.777489  0.865621
  Thomas-Fermi vector in A             =   2.056771
 
 Write flags
   LWAVE        =      T    write WAVECAR
   LDOWNSAMPLE  =      F    k-point downsampling of WAVECAR
   LCHARG       =      T    write CHGCAR
   LVTOT        =      F    write LOCPOT, total local potential
   LVHAR        =      F    write LOCPOT, Hartree potential only
   LELF         =      F    write electronic localiz. function (ELF)
   LORBIT       =     10    0 simple, 1 ext, 2 COOP (PROOUT), +10 PAW based schemes


 Dipole corrections
   LMONO  =      F    monopole corrections only (constant potential shift)
   LDIPOL =      F    correct potential (dipole corrections)
   IDIPOL =      0    1-x, 2-y, 3-z, 4-all directions 
   EPSILON=  1.0000000 bulk dielectric constant

 Exchange correlation treatment:
   GGA     =    --    GGA type
   LEXCH   =     8    internal setting for exchange type
   VOSKOWN=      0    Vosko Wilk Nusair interpolation
   LHFCALC =     F    Hartree Fock is set to
   LHFONE  =     F    Hartree Fock one center treatment
   AEXX    =    0.0000 exact exchange contribution

 Linear response parameters
   LEPSILON=     F    determine dielectric tensor
   LRPA    =     F    only Hartree local field effects (RPA)
   LNABLA  =     F    use nabla operator in PAW spheres
   LVEL    =     F    velocity operator in full k-point grid
   LINTERFAST=   F  fast interpolation
   KINTER  =     0    interpolate to denser k-point grid
   CSHIFT  =0.1000    complex shift for real part using Kramers Kronig
   OMEGAMAX=  -1.0    maximum frequency
   DEG_THRESHOLD= 0.2000000E-02 threshold for treating states as degnerate
   RTIME   =   -0.100 relaxation time in fs
  (WPLASMAI=    0.000 imaginary part of plasma frequency in eV, 0.658/RTIME)
   DFIELD  = 0.0000000 0.0000000 0.0000000 field for delta impulse in time
 
 Orbital magnetization related:
   ORBITALMAG=     F  switch on orbital magnetization
   LCHIMAG   =     F  perturbation theory with respect to B field
   DQ        =  0.001000  dq finite difference perturbation B field
   LLRAUG    =     F  two centre corrections for induced B field



--------------------------------------------------------------------------------------------------------


 Static calculation
 charge density and potential remain constant during run
 non-spin polarized calculation
 Variant of blocked Davidson
 Davidson routine will perform the subspace rotation
 perform sub-space diagonalisation
    after iterative eigenvector-optimisation
 no mixing
 using additional bands           32
 reciprocal scheme for non local part
 use partial core corrections
 calculate Harris-corrections to forces 
   (improved forces if not selfconsistent)
 use gradient corrections 
 WARNING: stress and forces are not correct
  (second derivative of E(xc) not defined)
 use of overlap-Matrix (Vanderbilt PP)
 Fermi weights with tetrahedron method with Bloechl corrections


--------------------------------------------------------------------------------------------------------


  energy-cutoff  :      520.00
  volume of cell :      958.84
      direct lattice vectors                 reciprocal lattice vectors
     8.675100327  0.000000000  0.000000000     0.115272442  0.000000000  0.000000000
     0.000000000  8.824000359  0.000000000     0.000000000  0.113327285  0.000000000
     0.000000000  0.000000000 12.525799751     0.000000000  0.000000000  0.079835222

  length of vectors
     8.675100327  8.824000359 12.525799751     0.115272442  0.113327285  0.079835222


 
 k-points in units of 2pi/SCALE and weight: K-Mesh Generated with KP-Resolved Value 
   0.00000000  0.00000000  0.00000000       0.007
   0.01921207  0.00000000  0.00000000       0.014
   0.03842415  0.00000000  0.00000000       0.014
   0.05763622  0.00000000  0.00000000       0.007
   0.00000000  0.01888788  0.00000000       0.014
   0.01921207  0.01888788  0.00000000       0.028
   0.03842415  0.01888788  0.00000000       0.028
   0.05763622  0.01888788  0.00000000       0.014
   0.00000000  0.03777576  0.00000000       0.014
   0.01921207  0.03777576  0.00000000       0.028
   0.03842415  0.03777576  0.00000000       0.028
   0.05763622  0.03777576  0.00000000       0.014
   0.00000000  0.05666364  0.00000000       0.007
   0.01921207  0.05666364  0.00000000       0.014
   0.03842415  0.05666364  0.00000000       0.014
   0.05763622  0.05666364  0.00000000       0.007
   0.00000000  0.00000000  0.01995881       0.014
   0.01921207  0.00000000  0.01995881       0.028
   0.03842415  0.00000000  0.01995881       0.028
   0.05763622  0.00000000  0.01995881       0.014
   0.00000000  0.01888788  0.01995881       0.028
   0.01921207  0.01888788  0.01995881       0.056
   0.03842415  0.01888788  0.01995881       0.056
   0.05763622  0.01888788  0.01995881       0.028
   0.00000000  0.03777576  0.01995881       0.028
   0.01921207  0.03777576  0.01995881       0.056
   0.03842415  0.03777576  0.01995881       0.056
   0.05763622  0.03777576  0.01995881       0.028
   0.00000000  0.05666364  0.01995881       0.014
   0.01921207  0.05666364  0.01995881       0.028
   0.03842415  0.05666364  0.01995881       0.028
   0.05763622  0.05666364  0.01995881       0.014
   0.00000000  0.00000000  0.03991761       0.007
   0.01921207  0.00000000  0.03991761       0.014
   0.03842415  0.00000000  0.03991761       0.014
   0.05763622  0.00000000  0.03991761       0.007
   0.00000000  0.01888788  0.03991761       0.014
   0.01921207  0.01888788  0.03991761       0.028
   0.03842415  0.01888788  0.03991761       0.028
   0.05763622  0.01888788  0.03991761       0.014
   0.00000000  0.03777576  0.03991761       0.014
   0.01921207  0.03777576  0.03991761       0.028
   0.03842415  0.03777576  0.03991761       0.028
   0.05763622  0.03777576  0.03991761       0.014
   0.00000000  0.05666364  0.03991761       0.007
   0.01921207  0.05666364  0.03991761       0.014
   0.03842415  0.05666364  0.03991761       0.014
   0.05763622  0.05666364  0.03991761       0.007
 
 k-points in reciprocal lattice and weights: K-Mesh Generated with KP-Resolved Value 
   0.00000000  0.00000000  0.00000000       0.007
   0.16666667  0.00000000  0.00000000       0.014
   0.33333333  0.00000000  0.00000000       0.014
   0.50000000  0.00000000  0.00000000       0.007
   0.00000000  0.16666667  0.00000000       0.014
   0.16666667  0.16666667  0.00000000       0.028
   0.33333333  0.16666667  0.00000000       0.028
   0.50000000  0.16666667  0.00000000       0.014
   0.00000000  0.33333333  0.00000000       0.014
   0.16666667  0.33333333  0.00000000       0.028
   0.33333333  0.33333333  0.00000000       0.028
   0.50000000  0.33333333  0.00000000       0.014
   0.00000000  0.50000000  0.00000000       0.007
   0.16666667  0.50000000  0.00000000       0.014
   0.33333333  0.50000000  0.00000000       0.014
   0.50000000  0.50000000  0.00000000       0.007
   0.00000000  0.00000000  0.25000000       0.014
   0.16666667  0.00000000  0.25000000       0.028
   0.33333333  0.00000000  0.25000000       0.028
   0.50000000  0.00000000  0.25000000       0.014
   0.00000000  0.16666667  0.25000000       0.028
   0.16666667  0.16666667  0.25000000       0.056
   0.33333333  0.16666667  0.25000000       0.056
   0.50000000  0.16666667  0.25000000       0.028
   0.00000000  0.33333333  0.25000000       0.028
   0.16666667  0.33333333  0.25000000       0.056
   0.33333333  0.33333333  0.25000000       0.056
   0.50000000  0.33333333  0.25000000       0.028
   0.00000000  0.50000000  0.25000000       0.014
   0.16666667  0.50000000  0.25000000       0.028
   0.33333333  0.50000000  0.25000000       0.028
   0.50000000  0.50000000  0.25000000       0.014
   0.00000000  0.00000000  0.50000000       0.007
   0.16666667  0.00000000  0.50000000       0.014
   0.33333333  0.00000000  0.50000000       0.014
   0.50000000  0.00000000  0.50000000       0.007
   0.00000000  0.16666667  0.50000000       0.014
   0.16666667  0.16666667  0.50000000       0.028
   0.33333333  0.16666667  0.50000000       0.028
   0.50000000  0.16666667  0.50000000       0.014
   0.00000000  0.33333333  0.50000000       0.014
   0.16666667  0.33333333  0.50000000       0.028
   0.33333333  0.33333333  0.50000000       0.028
   0.50000000  0.33333333  0.50000000       0.014
   0.00000000  0.50000000  0.50000000       0.007
   0.16666667  0.50000000  0.50000000       0.014
   0.33333333  0.50000000  0.50000000       0.014
   0.50000000  0.50000000  0.50000000       0.007
 
 position of ions in fractional coordinates (direct lattice) 
   0.19227051  0.30587406  0.54028163
   0.80772943  0.69412589  0.45971837
   0.69227057  0.19412594  0.45971837
   0.30772949  0.80587411  0.54028163
   0.80772943  0.69412589  0.04028164
   0.19227051  0.30587406  0.95971837
   0.30772949  0.80587411  0.95971837
   0.69227057  0.19412594  0.04028164
   0.91757977  0.00007447  0.75000002
   0.08242017  0.99992553  0.25000000
   0.41757982  0.49992553  0.25000000
   0.58242018  0.50007447  0.75000002
   0.00000000  0.00000000  0.50000000
   0.50000000  0.50000000  0.50000000
   0.00000000  0.00000000  0.00000000
   0.50000000  0.50000000  0.00000000
   0.97805666  0.42438825  0.25000000
   0.02194334  0.57561175  0.75000002
   0.47805666  0.07561174  0.75000002
   0.52194334  0.92438825  0.25000000
 
 position of ions in cartesian coordinates  (Angst):
   1.66796599  2.69903280  6.76745953
   7.00713386  6.12496708  5.75834022
   6.00551663  1.71296738  5.75834022
   2.66958417  7.11103345  6.76745953
   7.00713386  6.12496708  0.50455974
   1.66796599  2.69903280 12.02124010
   2.66958417  7.11103345 12.02124010
   6.00551663  1.71296738  0.50455974
   7.96009654  0.00065714  9.39435005
   0.71500325  8.82334327  3.13144994
   3.62254686  4.41134304  3.13144994
   5.05255347  4.41265732  9.39435005
   0.00000000  0.00000000  6.26289988
   4.33755016  4.41200018  6.26289988
   0.00000000  0.00000000  0.00000000
   4.33755016  4.41200018  0.00000000
   8.48473964  3.74480210  3.13144994
   0.19036067  5.07919826  9.39435005
   4.14718948  0.66719802  9.39435005
   4.52791085  8.15680228  3.13144994
 


--------------------------------------------------------------------------------------------------------


 k-point  1 :   0.0000 0.0000 0.0000  plane waves:   25779
 k-point  2 :   0.1667 0.0000 0.0000  plane waves:   25884
 k-point  3 :   0.3333 0.0000 0.0000  plane waves:   25818
 k-point  4 :   0.5000 0.0000 0.0000  plane waves:   25880
 k-point  5 :   0.0000 0.1667 0.0000  plane waves:   25799
 k-point  6 :   0.1667 0.1667 0.0000  plane waves:   25836
 k-point  7 :   0.3333 0.1667 0.0000  plane waves:   25850
 k-point  8 :   0.5000 0.1667 0.0000  plane waves:   25840
 k-point  9 :   0.0000 0.3333 0.0000  plane waves:   25835
 k-point 10 :   0.1667 0.3333 0.0000  plane waves:   25807
 k-point 11 :   0.3333 0.3333 0.0000  plane waves:   25809
 k-point 12 :   0.5000 0.3333 0.0000  plane waves:   25808
 k-point 13 :   0.0000 0.5000 0.0000  plane waves:   25816
 k-point 14 :   0.1667 0.5000 0.0000  plane waves:   25782
 k-point 15 :   0.3333 0.5000 0.0000  plane waves:   25784
 k-point 16 :   0.5000 0.5000 0.0000  plane waves:   25796
 k-point 17 :   0.0000 0.0000 0.2500  plane waves:   25819
 k-point 18 :   0.1667 0.0000 0.2500  plane waves:   25825
 k-point 19 :   0.3333 0.0000 0.2500  plane waves:   25851
 k-point 20 :   0.5000 0.0000 0.2500  plane waves:   25836
 k-point 21 :   0.0000 0.1667 0.2500  plane waves:   25810
 k-point 22 :   0.1667 0.1667 0.2500  plane waves:   25812
 k-point 23 :   0.3333 0.1667 0.2500  plane waves:   25826
 k-point 24 :   0.5000 0.1667 0.2500  plane waves:   25834
 k-point 25 :   0.0000 0.3333 0.2500  plane waves:   25815
 k-point 26 :   0.1667 0.3333 0.2500  plane waves:   25821
 k-point 27 :   0.3333 0.3333 0.2500  plane waves:   25812
 k-point 28 :   0.5000 0.3333 0.2500  plane waves:   25832
 k-point 29 :   0.0000 0.5000 0.2500  plane waves:   25812
 k-point 30 :   0.1667 0.5000 0.2500  plane waves:   25808
 k-point 31 :   0.3333 0.5000 0.2500  plane waves:   25804
 k-point 32 :   0.5000 0.5000 0.2500  plane waves:   25768
 k-point 33 :   0.0000 0.0000 0.5000  plane waves:   25750
 k-point 34 :   0.1667 0.0000 0.5000  plane waves:   25792
 k-point 35 :   0.3333 0.0000 0.5000  plane waves:   25866
 k-point 36 :   0.5000 0.0000 0.5000  plane waves:   25836
 k-point 37 :   0.0000 0.1667 0.5000  plane waves:   25808
 k-point 38 :   0.1667 0.1667 0.5000  plane waves:   25788
 k-point 39 :   0.3333 0.1667 0.5000  plane waves:   25824
 k-point 40 :   0.5000 0.1667 0.5000  plane waves:   25864
 k-point 41 :   0.0000 0.3333 0.5000  plane waves:   25836
 k-point 42 :   0.1667 0.3333 0.5000  plane waves:   25812
 k-point 43 :   0.3333 0.3333 0.5000  plane waves:   25792
 k-point 44 :   0.5000 0.3333 0.5000  plane waves:   25820
 k-point 45 :   0.0000 0.5000 0.5000  plane waves:   25860
 k-point 46 :   0.1667 0.5000 0.5000  plane waves:   25804
 k-point 47 :   0.3333 0.5000 0.5000  plane waves:   25828
 k-point 48 :   0.5000 0.5000 0.5000  plane waves:   25800

 maximum and minimum number of plane-waves per node :     12988    12843

 maximum number of plane-waves:     25884
 maximum index in each direction: 
   IXMAX=   16   IYMAX=   16   IZMAX=   23
   IXMIN=  -16   IYMIN=  -16   IZMIN=  -23


 parallel 3D FFT for wavefunctions:
    minimum data exchange during FFTs selected (reduces bandwidth)
 parallel 3D FFT for charge:
    minimum data exchange during FFTs selected (reduces bandwidth)


 total amount of memory used by VASP MPI-rank0   378901. kBytes
=======================================================================

   base      :      30000. kBytes
   nonl-proj :     273896. kBytes
   fftplans  :       9699. kBytes
   grid      :      14648. kBytes
   one-center:        155. kBytes
   wavefun   :      50503. kBytes
 
     INWAV:  cpu time    0.0010: real time    0.0006
 initial charge density was supplied:
 number of electron     175.9999984 magnetization 
 keeping initial charge density in first step


--------------------------------------------------------------------------------------------------------


 Maximum index for augmentation-charges         1074 (set IRDMAX)


--------------------------------------------------------------------------------------------------------


 First call to EWALD:  gamma=   0.180
 Maximum number of real-space cells 3x 3x 2
 Maximum number of reciprocal cells 2x 3x 3

    FEWALD:  cpu time    0.0050: real time    0.1403


--------------------------------------- Iteration      1(   1)  ---------------------------------------


    POTLOK:  cpu time    0.1820: real time    0.5905
    SETDIJ:  cpu time    0.1510: real time    0.2725
     EDDAV:  cpu time   44.0513: real time   45.0694
 BZINTS: Fermi energy: 12.080141;176.000000 electrons
         Band energy: 363.635927;  BLOECHL correction: -0.059562
       DOS:  cpu time    0.1140: real time    0.2183
    --------------------------------------------
      LOOP:  cpu time   44.4982: real time   46.1509

 eigenvalue-minimisations  : 11520
 total energy-change (2. order) : 0.1472632E+04  (-0.7025251E+04)
 number of electron     175.9999984 magnetization 
 augmentation part      175.9999984 magnetization 

 Free energy of the ion-electron system (eV)
  ---------------------------------------------------
  alpha Z        PSCENC =       274.57589780
  Ewald energy   TEWEN  =     -8733.92648156
  -Hartree energ DENC   =     -3540.45062764
  -exchange      EXHF   =         0.00000000
  -V(xc)+E(xc)   XCENC  =        35.98679021
  PAW double counting   =     11933.82645364   -11520.60566502
  entropy T*S    EENTRO =         0.00000000
  eigenvalues    EBANDS =       363.63592669
  atomic energy  EATOM  =     12659.59018207
  Solvation  Ediel_sol  =         0.00000000
  ---------------------------------------------------
  free energy    TOTEN  =      1472.63247620 eV

  energy without entropy =     1472.63247620  energy(sigma->0) =     1472.63247620


--------------------------------------------------------------------------------------------------------




--------------------------------------- Iteration      1(   2)  ---------------------------------------


     EDDAV:  cpu time   49.4635: real time   49.6152
 BZINTS: Fermi energy:  3.785459;176.000000 electrons
         Band energy:-991.293802;  BLOECHL correction:  0.000000
       DOS:  cpu time    0.0790: real time    0.0789
    --------------------------------------------
      LOOP:  cpu time   49.5425: real time   49.6941

 eigenvalue-minimisations  : 13656
 total energy-change (2. order) :-0.1354930E+04  (-0.1310960E+04)
 number of electron     175.9999984 magnetization 
 augmentation part      175.9999984 magnetization 

 Free energy of the ion-electron system (eV)
  ---------------------------------------------------
  alpha Z        PSCENC =       274.57589780
  Ewald energy   TEWEN  =     -8733.92648156
  -Hartree energ DENC   =     -3540.45062764
  -exchange      EXHF   =         0.00000000
  -V(xc)+E(xc)   XCENC  =        35.98679021
  PAW double counting   =     11933.82645364   -11520.60566502
  entropy T*S    EENTRO =         0.00000000
  eigenvalues    EBANDS =      -991.29380190
  atomic energy  EATOM  =     12659.59018207
  Solvation  Ediel_sol  =         0.00000000
  ---------------------------------------------------
  free energy    TOTEN  =       117.70274760 eV

  energy without entropy =      117.70274760  energy(sigma->0) =      117.70274760


--------------------------------------------------------------------------------------------------------




--------------------------------------- Iteration      1(   3)  ---------------------------------------


     EDDAV:  cpu time   51.4872: real time   51.6455
 BZINTS: Fermi energy:  1.726593;176.000000 electrons
         Band energy:***********;  BLOECHL correction:  0.000000
       DOS:  cpu time    0.0560: real time    0.0556
    --------------------------------------------
      LOOP:  cpu time   51.5432: real time   51.7011

 eigenvalue-minimisations  : 14376
 total energy-change (2. order) :-0.1661883E+03  (-0.1652184E+03)
 number of electron     175.9999984 magnetization 
 augmentation part      175.9999984 magnetization 

 Free energy of the ion-electron system (eV)
  ---------------------------------------------------
  alpha Z        PSCENC =       274.57589780
  Ewald energy   TEWEN  =     -8733.92648156
  -Hartree energ DENC   =     -3540.45062764
  -exchange      EXHF   =         0.00000000
  -V(xc)+E(xc)   XCENC  =        35.98679021
  PAW double counting   =     11933.82645364   -11520.60566502
  entropy T*S    EENTRO =         0.00000000
  eigenvalues    EBANDS =     -1157.48210571
  atomic energy  EATOM  =     12659.59018207
  Solvation  Ediel_sol  =         0.00000000
  ---------------------------------------------------
  free energy    TOTEN  =       -48.48555620 eV

  energy without entropy =      -48.48555620  energy(sigma->0) =      -48.48555620


--------------------------------------------------------------------------------------------------------




--------------------------------------- Iteration      1(   4)  ---------------------------------------


     EDDAV:  cpu time   54.6787: real time   54.8816
 BZINTS: Fermi energy:  1.637967;176.000000 electrons
         Band energy:***********;  BLOECHL correction:  0.000000
       DOS:  cpu time    0.0530: real time    0.0531
    --------------------------------------------
      LOOP:  cpu time   54.7317: real time   54.9347

 eigenvalue-minimisations  : 15624
 total energy-change (2. order) :-0.7861997E+01  (-0.7852096E+01)
 number of electron     175.9999984 magnetization 
 augmentation part      175.9999984 magnetization 

 Free energy of the ion-electron system (eV)
  ---------------------------------------------------
  alpha Z        PSCENC =       274.57589780
  Ewald energy   TEWEN  =     -8733.92648156
  -Hartree energ DENC   =     -3540.45062764
  -exchange      EXHF   =         0.00000000
  -V(xc)+E(xc)   XCENC  =        35.98679021
  PAW double counting   =     11933.82645364   -11520.60566502
  entropy T*S    EENTRO =         0.00000000
  eigenvalues    EBANDS =     -1165.34410232
  atomic energy  EATOM  =     12659.59018207
  Solvation  Ediel_sol  =         0.00000000
  ---------------------------------------------------
  free energy    TOTEN  =       -56.34755281 eV

  energy without entropy =      -56.34755281  energy(sigma->0) =      -56.34755281


--------------------------------------------------------------------------------------------------------




--------------------------------------- Iteration      1(   5)  ---------------------------------------


     EDDAV:  cpu time   52.6160: real time   52.8156
 BZINTS: Fermi energy:  1.640986;176.000000 electrons
         Band energy:***********;  BLOECHL correction:  0.000000
       DOS:  cpu time    0.0520: real time    0.0524
    --------------------------------------------
      LOOP:  cpu time   52.6680: real time   52.8680

 eigenvalue-minimisations  : 14784
 total energy-change (2. order) :-0.2354502E+00  (-0.2354336E+00)
 number of electron     175.9999984 magnetization 
 augmentation part      175.9999984 magnetization 

 Free energy of the ion-electron system (eV)
  ---------------------------------------------------
  alpha Z        PSCENC =       274.57589780
  Ewald energy   TEWEN  =     -8733.92648156
  -Hartree energ DENC   =     -3540.45062764
  -exchange      EXHF   =         0.00000000
  -V(xc)+E(xc)   XCENC  =        35.98679021
  PAW double counting   =     11933.82645364   -11520.60566502
  entropy T*S    EENTRO =         0.00000000
  eigenvalues    EBANDS =     -1165.57955247
  atomic energy  EATOM  =     12659.59018207
  Solvation  Ediel_sol  =         0.00000000
  ---------------------------------------------------
  free energy    TOTEN  =       -56.58300297 eV

  energy without entropy =      -56.58300297  energy(sigma->0) =      -56.58300297


--------------------------------------------------------------------------------------------------------




--------------------------------------- Iteration      1(   6)  ---------------------------------------


     EDDAV:  cpu time   60.9537: real time   61.1279
 BZINTS: Fermi energy:  1.639637;176.000000 electrons
         Band energy:***********;  BLOECHL correction:  0.000000
       DOS:  cpu time    0.0510: real time    0.0523
    --------------------------------------------
      LOOP:  cpu time   61.0047: real time   61.1802

 eigenvalue-minimisations  : 17976
 total energy-change (2. order) :-0.1137046E-01  (-0.1137027E-01)
 number of electron     175.9999984 magnetization 
 augmentation part      175.9999984 magnetization 

 Free energy of the ion-electron system (eV)
  ---------------------------------------------------
  alpha Z        PSCENC =       274.57589780
  Ewald energy   TEWEN  =     -8733.92648156
  -Hartree energ DENC   =     -3540.45062764
  -exchange      EXHF   =         0.00000000
  -V(xc)+E(xc)   XCENC  =        35.98679021
  PAW double counting   =     11933.82645364   -11520.60566502
  entropy T*S    EENTRO =         0.00000000
  eigenvalues    EBANDS =     -1165.59092293
  atomic energy  EATOM  =     12659.59018207
  Solvation  Ediel_sol  =         0.00000000
  ---------------------------------------------------
  free energy    TOTEN  =       -56.59437342 eV

  energy without entropy =      -56.59437342  energy(sigma->0) =      -56.59437342


--------------------------------------------------------------------------------------------------------




--------------------------------------- Iteration      1(   7)  ---------------------------------------


     EDDAV:  cpu time   53.0289: real time   53.1767
 BZINTS: Fermi energy:  1.644764;176.000000 electrons
         Band energy:***********;  BLOECHL correction:  0.000000
       DOS:  cpu time    0.0520: real time    0.0523
    --------------------------------------------
      LOOP:  cpu time   53.0809: real time   53.2290

 eigenvalue-minimisations  : 14976
 total energy-change (2. order) :-0.1403857E-03  (-0.1403853E-03)
 number of electron     175.9999984 magnetization 
 augmentation part      175.9999984 magnetization 

 Free energy of the ion-electron system (eV)
  ---------------------------------------------------
  alpha Z        PSCENC =       274.57589780
  Ewald energy   TEWEN  =     -8733.92648156
  -Hartree energ DENC   =     -3540.45062764
  -exchange      EXHF   =         0.00000000
  -V(xc)+E(xc)   XCENC  =        35.98679021
  PAW double counting   =     11933.82645364   -11520.60566502
  entropy T*S    EENTRO =         0.00000000
  eigenvalues    EBANDS =     -1165.59106331
  atomic energy  EATOM  =     12659.59018207
  Solvation  Ediel_sol  =         0.00000000
  ---------------------------------------------------
  free energy    TOTEN  =       -56.59451381 eV

  energy without entropy =      -56.59451381  energy(sigma->0) =      -56.59451381


--------------------------------------------------------------------------------------------------------




--------------------------------------- Iteration      1(   8)  ---------------------------------------


     EDDAV:  cpu time   60.0759: real time   60.2529
 BZINTS: Fermi energy:  1.638990;176.000000 electrons
         Band energy:***********;  BLOECHL correction:  0.000000
       DOS:  cpu time    0.0520: real time    0.0522
    --------------------------------------------
      LOOP:  cpu time   60.1279: real time   60.3050

 eigenvalue-minimisations  : 17664
 total energy-change (2. order) :-0.5851238E-05  (-0.5851198E-05)
 number of electron     175.9999984 magnetization 
 augmentation part      175.9999984 magnetization 

 Free energy of the ion-electron system (eV)
  ---------------------------------------------------
  alpha Z        PSCENC =       274.57589780
  Ewald energy   TEWEN  =     -8733.92648156
  -Hartree energ DENC   =     -3540.45062764
  -exchange      EXHF   =         0.00000000
  -V(xc)+E(xc)   XCENC  =        35.98679021
  PAW double counting   =     11933.82645364   -11520.60566502
  entropy T*S    EENTRO =         0.00000000
  eigenvalues    EBANDS =     -1165.59106917
  atomic energy  EATOM  =     12659.59018207
  Solvation  Ediel_sol  =         0.00000000
  ---------------------------------------------------
  free energy    TOTEN  =       -56.59451966 eV

  energy without entropy =      -56.59451966  energy(sigma->0) =      -56.59451966


--------------------------------------------------------------------------------------------------------




--------------------------------------- Iteration      1(   9)  ---------------------------------------


     EDDAV:  cpu time   42.4645: real time   42.5833
 BZINTS: Fermi energy:  1.635103;176.000000 electrons
         Band energy:***********;  BLOECHL correction:  0.000000
       DOS:  cpu time    0.0520: real time    0.0523
    --------------------------------------------
      LOOP:  cpu time   42.5165: real time   42.6356

 eigenvalue-minimisations  : 10800
 total energy-change (2. order) :-0.5044240E-07  (-0.5050920E-07)
 number of electron     175.9999984 magnetization 
 augmentation part      175.9999984 magnetization 

 Free energy of the ion-electron system (eV)
  ---------------------------------------------------
  alpha Z        PSCENC =       274.57589780
  Ewald energy   TEWEN  =     -8733.92648156
  -Hartree energ DENC   =     -3540.45062764
  -exchange      EXHF   =         0.00000000
  -V(xc)+E(xc)   XCENC  =        35.98679021
  PAW double counting   =     11933.82645364   -11520.60566502
  entropy T*S    EENTRO =         0.00000000
  eigenvalues    EBANDS =     -1165.59106922
  atomic energy  EATOM  =     12659.59018207
  Solvation  Ediel_sol  =         0.00000000
  ---------------------------------------------------
  free energy    TOTEN  =       -56.59451971 eV

  energy without entropy =      -56.59451971  energy(sigma->0) =      -56.59451971


--------------------------------------------------------------------------------------------------------




 average (electrostatic) potential at core
  the test charge radii are     1.1875  1.1541  1.1312
  (the norm of the test charge is              1.0000)
       1 -93.2415       2 -93.2415       3 -93.2415       4 -93.2415       5 -93.2415
       6 -93.2415       7 -93.2415       8 -93.2415       9 -93.2283      10 -93.2283
      11 -93.2283      12 -93.2283      13 -95.4128      14 -95.4128      15 -95.4128
      16 -95.4128      17 -48.8051      18 -48.8051      19 -48.8051      20 -48.8051
 
 
 
 E-fermi :   1.6351     XC(G=0):  -7.5284     alpha+bet : -7.7161


 k-point     1 :       0.0000    0.0000    0.0000
  band No.  band energies     occupation 
      1     -19.0589      2.00000
      2     -19.0584      2.00000
      3     -19.0574      2.00000
      4     -19.0570      2.00000
      5     -14.8756      2.00000
      6     -14.8743      2.00000
      7     -14.8741      2.00000
      8     -14.8700      2.00000
      9     -14.8653      2.00000
     10     -14.8596      2.00000
     11     -14.8580      2.00000
     12     -14.8579      2.00000
     13     -14.8308      2.00000
     14     -14.8305      2.00000
     15     -14.8303      2.00000
     16     -14.8300      2.00000
     17     -14.8255      2.00000
     18     -14.8252      2.00000
     19     -14.8250      2.00000
     20     -14.8248      2.00000
     21     -14.8215      2.00000
     22     -14.8213      2.00000
     23     -14.8207      2.00000
     24     -14.8205      2.00000
     25     -10.3354      2.00000
     26     -10.1629      2.00000
     27      -9.9135      2.00000
     28      -9.8799      2.00000
     29      -9.8757      2.00000
     30      -9.8654      2.00000
     31      -9.8576      2.00000
     32      -9.8453      2.00000
     33      -9.8451      2.00000
     34      -9.6784      2.00000
     35      -9.6727      2.00000
     36      -9.6686      2.00000
     37      -6.5502      2.00000
     38      -6.1047      2.00000
     39      -5.9260      2.00000
     40      -5.9215      2.00000
     41      -5.9166      2.00000
     42      -5.9122      2.00000
     43      -5.9071      2.00000
     44      -5.9045      2.00000
     45      -5.9030      2.00000
     46      -5.8936      2.00000
     47      -5.8833      2.00000
     48      -5.8795      2.00000
     49      -5.8634      2.00000
     50      -5.8592      2.00000
     51      -5.6059      2.00000
     52      -5.1661      2.00000
     53      -1.5656      2.00000
     54      -1.5596      2.00000
     55      -1.4742      2.00000
     56      -1.4350      2.00000
     57      -1.3226      2.00000
     58      -1.2793      2.00000
     59      -0.4720      2.00000
     60      -0.2286      2.00000
     61      -0.2204      2.00000
     62      -0.2134      2.00000
     63      -0.1832      2.00000
     64      -0.1382      2.00000
     65       0.0968      2.00000
     66       0.2446      2.00000
     67       0.2710      2.00000
     68       0.2772      2.00000
     69       0.3652      2.00000
     70       0.3765      2.00000
     71       0.3837      2.00000
     72       0.4002      2.00000
     73       0.4190      2.00000
     74       0.4574      2.00000
     75       0.4869      2.00000
     76       0.4927      2.00000
     77       0.4975      2.00000
     78       0.5914      2.00000
     79       0.6783      2.00000
     80       0.6901      2.00000
     81       0.7318      2.00000
     82       0.7731      2.00000
     83       0.7773      2.00000
     84       0.7954      2.00000
     85       0.9638      2.00000
     86       0.9823      2.00000
     87       1.2335      2.00000
     88       1.6337      2.00000
     89       3.4651      0.00000
     90       3.4770      0.00000
     91       3.5720      0.00000
     92       3.7695      0.00000
     93       3.9089      0.00000
     94       4.0855      0.00000
     95       5.5488      0.00000
     96       6.1858      0.00000
     97       6.2033      0.00000
     98       6.4208      0.00000
     99       6.4509      0.00000
    100       6.4962      0.00000
    101       6.5716      0.00000
    102       6.5980      0.00000
    103       6.6388      0.00000
    104       6.7131      0.00000
    105       6.7471      0.00000
    106       6.7839      0.00000
    107       6.8212      0.00000
    108       7.0500      0.00000
    109       7.0572      0.00000
    110       7.1146      0.00000
    111       7.2575      0.00000
    112       7.2936      0.00000
    113       7.4319      0.00000
    114       7.4960      0.00000
    115       7.5627      0.00000
    116       7.6348      0.00000
    117       7.8292      0.00000
    118       7.8555      0.00000
    119       7.8796      0.00000
    120       8.0726      0.00000

 k-point     2 :       0.1667    0.0000    0.0000
  band No.  band energies     occupation 
      1     -19.0588      2.00000
      2     -19.0583      2.00000
      3     -19.0574      2.00000
      4     -19.0571      2.00000
      5     -14.8752      2.00000
      6     -14.8733      2.00000
      7     -14.8730      2.00000
      8     -14.8702      2.00000
      9     -14.8650      2.00000
     10     -14.8600      2.00000
     11     -14.8591      2.00000
     12     -14.8590      2.00000
     13     -14.8308      2.00000
     14     -14.8305      2.00000
     15     -14.8303      2.00000
     16     -14.8300      2.00000
     17     -14.8255      2.00000
     18     -14.8253      2.00000
     19     -14.8250      2.00000
     20     -14.8248      2.00000
     21     -14.8214      2.00000
     22     -14.8212      2.00000
     23     -14.8207      2.00000
     24     -14.8206      2.00000
     25     -10.3185      2.00000
     26     -10.1451      2.00000
     27      -9.9951      2.00000
     28      -9.8814      2.00000
     29      -9.8713      2.00000
     30      -9.8695      2.00000
     31      -9.8414      2.00000
     32      -9.8335      2.00000
     33      -9.8082      2.00000
     34      -9.6910      2.00000
     35      -9.6806      2.00000
     36      -9.6757      2.00000
     37      -6.4947      2.00000
     38      -6.0654      2.00000
     39      -5.9229      2.00000
     40      -5.9180      2.00000
     41      -5.9157      2.00000
     42      -5.9117      2.00000
     43      -5.9093      2.00000
     44      -5.9046      2.00000
     45      -5.8961      2.00000
     46      -5.8884      2.00000
     47      -5.8884      2.00000
     48      -5.8836      2.00000
     49      -5.8703      2.00000
     50      -5.8436      2.00000
     51      -5.6702      2.00000
     52      -5.2401      2.00000
     53      -1.5381      2.00000
     54      -1.4390      2.00000
     55      -1.4097      2.00000
     56      -1.3308      2.00000
     57      -1.2862      2.00000
     58      -1.2665      2.00000
     59      -0.4379      2.00000
     60      -0.3232      2.00000
     61      -0.2620      2.00000
     62      -0.2117      2.00000
     63      -0.1931      2.00000
     64      -0.1469      2.00000
     65       0.0368      2.00000
     66       0.0601      2.00000
     67       0.2464      2.00000
     68       0.2811      2.00000
     69       0.3205      2.00000
     70       0.3353      2.00000
     71       0.3688      2.00000
     72       0.3952      2.00000
     73       0.4213      2.00000
     74       0.4845      2.00000
     75       0.5207      2.00000
     76       0.5309      2.00000
     77       0.5476      2.00000
     78       0.5561      2.00000
     79       0.5983      2.00000
     80       0.6804      2.00000
     81       0.7149      2.00000
     82       0.7490      2.00000
     83       0.7976      2.00000
     84       0.8048      2.00000
     85       0.9583      2.00000
     86       0.9776      2.00000
     87       1.1022      2.00000
     88       1.4566      2.00000
     89       3.5038      0.00000
     90       3.7525      0.00000
     91       3.7610      0.00000
     92       3.9150      0.00000
     93       4.0758      0.00000
     94       4.1415      0.00000
     95       5.6908      0.00000
     96       5.9961      0.00000
     97       6.2061      0.00000
     98       6.2441      0.00000
     99       6.2630      0.00000
    100       6.3433      0.00000
    101       6.4089      0.00000
    102       6.5908      0.00000
    103       6.6426      0.00000
    104       6.8164      0.00000
    105       6.8227      0.00000
    106       6.8714      0.00000
    107       6.8962      0.00000
    108       7.0876      0.00000
    109       7.1638      0.00000
    110       7.2390      0.00000
    111       7.2550      0.00000
    112       7.3005      0.00000
    113       7.3542      0.00000
    114       7.4513      0.00000
    115       7.5279      0.00000
    116       7.5997      0.00000
    117       7.8005      0.00000
    118       7.8073      0.00000
    119       7.8623      0.00000
    120       8.0195      0.00000

 k-point     3 :       0.3333    0.0000    0.0000
  band No.  band energies     occupation 
      1     -19.0586      2.00000
      2     -19.0582      2.00000
      3     -19.0576      2.00000
      4     -19.0573      2.00000
      5     -14.8742      2.00000
      6     -14.8720      2.00000
      7     -14.8701      2.00000
      8     -14.8696      2.00000
      9     -14.8642      2.00000
     10     -14.8620      2.00000
     11     -14.8617      2.00000
     12     -14.8610      2.00000
     13     -14.8307      2.00000
     14     -14.8304      2.00000
     15     -14.8304      2.00000
     16     -14.8301      2.00000
     17     -14.8255      2.00000
     18     -14.8253      2.00000
     19     -14.8250      2.00000
     20     -14.8248      2.00000
     21     -14.8213      2.00000
     22     -14.8211      2.00000
     23     -14.8209      2.00000
     24     -14.8207      2.00000
     25     -10.2696      2.00000
     26     -10.0979      2.00000
     27     -10.0949      2.00000
     28      -9.9435      2.00000
     29      -9.8700      2.00000
     30      -9.8653      2.00000
     31      -9.8170      2.00000
     32      -9.8017      2.00000
     33      -9.7511      2.00000
     34      -9.7229      2.00000
     35      -9.7132      2.00000
     36      -9.6860      2.00000
     37      -6.3421      2.00000
     38      -5.9818      2.00000
     39      -5.9458      2.00000
     40      -5.9243      2.00000
     41      -5.9166      2.00000
     42      -5.9102      2.00000
     43      -5.9087      2.00000
     44      -5.9071      2.00000
     45      -5.8961      2.00000
     46      -5.8855      2.00000
     47      -5.8811      2.00000
     48      -5.8779      2.00000
     49      -5.8733      2.00000
     50      -5.8029      2.00000
     51      -5.7933      2.00000
     52      -5.4243      2.00000
     53      -1.4832      2.00000
     54      -1.3596      2.00000
     55      -1.2251      2.00000
     56      -1.1251      2.00000
     57      -1.0785      2.00000
     58      -0.9922      2.00000
     59      -0.6102      2.00000
     60      -0.4351      2.00000
     61      -0.3429      2.00000
     62      -0.3154      2.00000
     63      -0.2934      2.00000
     64      -0.1990      2.00000
     65      -0.1058      2.00000
     66      -0.0138      2.00000
     67       0.1244      2.00000
     68       0.1271      2.00000
     69       0.3097      2.00000
     70       0.3617      2.00000
     71       0.3889      2.00000
     72       0.3896      2.00000
     73       0.4140      2.00000
     74       0.4304      2.00000
     75       0.4875      2.00000
     76       0.4920      2.00000
     77       0.5701      2.00000
     78       0.6003      2.00000
     79       0.6183      2.00000
     80       0.6576      2.00000
     81       0.6726      2.00000
     82       0.7062      2.00000
     83       0.7876      2.00000
     84       0.8225      2.00000
     85       0.8905      2.00000
     86       0.9091      2.00000
     87       0.9973      2.00000
     88       1.1885      2.00000
     89       3.6065      0.00000
     90       3.8846      0.00000
     91       4.2466      0.00000
     92       4.3441      0.00000
     93       4.5256      0.00000
     94       4.6239      0.00000
     95       5.5089      0.00000
     96       5.6695      0.00000
     97       5.7873      0.00000
     98       5.8247      0.00000
     99       6.1730      0.00000
    100       6.3103      0.00000
    101       6.4266      0.00000
    102       6.5498      0.00000
    103       6.6973      0.00000
    104       6.8676      0.00000
    105       6.9537      0.00000
    106       6.9593      0.00000
    107       6.9967      0.00000
    108       7.0718      0.00000
    109       7.1709      0.00000
    110       7.1740      0.00000
    111       7.1877      0.00000
    112       7.2305      0.00000
    113       7.3879      0.00000
    114       7.6025      0.00000
    115       7.6210      0.00000
    116       7.6575      0.00000
    117       7.6835      0.00000
    118       7.7231      0.00000
    119       7.7843      0.00000
    120       7.9252      0.00000

 k-point     4 :       0.5000    0.0000    0.0000
  band No.  band energies     occupation 
      1     -19.0583      2.00000
      2     -19.0583      2.00000
      3     -19.0575      2.00000
      4     -19.0575      2.00000
      5     -14.8729      2.00000
      6     -14.8729      2.00000
      7     -14.8663      2.00000
      8     -14.8663      2.00000
      9     -14.8659      2.00000
     10     -14.8659      2.00000
     11     -14.8623      2.00000
     12     -14.8623      2.00000
     13     -14.8306      2.00000
     14     -14.8306      2.00000
     15     -14.8303      2.00000
     16     -14.8303      2.00000
     17     -14.8254      2.00000
     18     -14.8254      2.00000
     19     -14.8249      2.00000
     20     -14.8249      2.00000
     21     -14.8211      2.00000
     22     -14.8211      2.00000
     23     -14.8209      2.00000
     24     -14.8209      2.00000
     25     -10.1933      2.00000
     26     -10.1933      2.00000
     27     -10.0221      2.00000
     28     -10.0221      2.00000
     29      -9.8676      2.00000
     30      -9.8676      2.00000
     31      -9.7741      2.00000
     32      -9.7741      2.00000
     33      -9.7577      2.00000
     34      -9.7577      2.00000
     35      -9.7072      2.00000
     36      -9.7072      2.00000
     37      -6.1319      2.00000
     38      -6.1319      2.00000
     39      -5.9386      2.00000
     40      -5.9386      2.00000
     41      -5.9136      2.00000
     42      -5.9136      2.00000
     43      -5.9047      2.00000
     44      -5.9047      2.00000
     45      -5.8862      2.00000
     46      -5.8862      2.00000
     47      -5.8729      2.00000
     48      -5.8729      2.00000
     49      -5.8597      2.00000
     50      -5.8597      2.00000
     51      -5.6390      2.00000
     52      -5.6390      2.00000
     53      -1.4226      2.00000
     54      -1.4226      2.00000
     55      -0.9549      2.00000
     56      -0.9549      2.00000
     57      -0.7725      2.00000
     58      -0.7725      2.00000
     59      -0.7060      2.00000
     60      -0.7060      2.00000
     61      -0.5374      2.00000
     62      -0.5374      2.00000
     63      -0.3372      2.00000
     64      -0.3372      2.00000
     65      -0.0259      2.00000
     66      -0.0259      2.00000
     67       0.1506      2.00000
     68       0.1506      2.00000
     69       0.2341      2.00000
     70       0.2341      2.00000
     71       0.3607      2.00000
     72       0.3607      2.00000
     73       0.4065      2.00000
     74       0.4065      2.00000
     75       0.5325      2.00000
     76       0.5325      2.00000
     77       0.5558      2.00000
     78       0.5558      2.00000
     79       0.6441      2.00000
     80       0.6441      2.00000
     81       0.7069      2.00000
     82       0.7069      2.00000
     83       0.7981      2.00000
     84       0.7981      2.00000
     85       0.8414      2.00000
     86       0.8414      2.00000
     87       1.0457      2.00000
     88       1.0457      2.00000
     89       3.7484      0.00000
     90       3.7484      0.00000
     91       4.8573      0.00000
     92       4.8573      0.00000
     93       5.0389      0.00000
     94       5.0389      0.00000
     95       5.1002      0.00000
     96       5.1002      0.00000
     97       5.3186      0.00000
     98       5.3186      0.00000
     99       6.4274      0.00000
    100       6.4274      0.00000
    101       6.5165      0.00000
    102       6.5165      0.00000
    103       6.7369      0.00000
    104       6.7369      0.00000
    105       6.8701      0.00000
    106       6.8701      0.00000
    107       7.0661      0.00000
    108       7.0661      0.00000
    109       7.1592      0.00000
    110       7.1592      0.00000
    111       7.2749      0.00000
    112       7.2749      0.00000
    113       7.3681      0.00000
    114       7.3681      0.00000
    115       7.5879      0.00000
    116       7.5880      0.00000
    117       7.7980      0.00000
    118       7.7984      0.00000
    119       7.9047      0.00000
    120       7.9086      0.00000

 k-point     5 :       0.0000    0.1667    0.0000
  band No.  band energies     occupation 
      1     -19.0588      2.00000
      2     -19.0583      2.00000
      3     -19.0575      2.00000
      4     -19.0571      2.00000
      5     -14.8752      2.00000
      6     -14.8733      2.00000
      7     -14.8730      2.00000
      8     -14.8702      2.00000
      9     -14.8650      2.00000
     10     -14.8600      2.00000
     11     -14.8590      2.00000
     12     -14.8590      2.00000
     13     -14.8308      2.00000
     14     -14.8305      2.00000
     15     -14.8303      2.00000
     16     -14.8300      2.00000
     17     -14.8255      2.00000
     18     -14.8253      2.00000
     19     -14.8250      2.00000
     20     -14.8248      2.00000
     21     -14.8214      2.00000
     22     -14.8212      2.00000
     23     -14.8207      2.00000
     24     -14.8206      2.00000
     25     -10.3185      2.00000
     26     -10.1445      2.00000
     27      -9.9936      2.00000
     28      -9.8737      2.00000
     29      -9.8701      2.00000
     30      -9.8585      2.00000
     31      -9.8585      2.00000
     32      -9.8452      2.00000
     33      -9.8002      2.00000
     34      -9.6920      2.00000
     35      -9.6815      2.00000
     36      -9.6750      2.00000
     37      -6.4954      2.00000
     38      -6.0654      2.00000
     39      -5.9265      2.00000
     40      -5.9229      2.00000
     41      -5.9191      2.00000
     42      -5.9160      2.00000
     43      -5.9114      2.00000
     44      -5.9028      2.00000
     45      -5.8966      2.00000
     46      -5.8904      2.00000
     47      -5.8855      2.00000
     48      -5.8752      2.00000
     49      -5.8664      2.00000
     50      -5.8464      2.00000
     51      -5.6639      2.00000
     52      -5.2394      2.00000
     53      -1.5344      2.00000
     54      -1.4849      2.00000
     55      -1.3634      2.00000
     56      -1.3564      2.00000
     57      -1.2943      2.00000
     58      -1.2356      2.00000
     59      -0.4335      2.00000
     60      -0.2792      2.00000
     61      -0.2377      2.00000
     62      -0.1939      2.00000
     63      -0.1927      2.00000
     64      -0.1307      2.00000
     65      -0.0689      2.00000
     66       0.0999      2.00000
     67       0.1820      2.00000
     68       0.2797      2.00000
     69       0.3059      2.00000
     70       0.3658      2.00000
     71       0.3722      2.00000
     72       0.3844      2.00000
     73       0.4514      2.00000
     74       0.4773      2.00000
     75       0.5008      2.00000
     76       0.5022      2.00000
     77       0.5346      2.00000
     78       0.5883      2.00000
     79       0.6500      2.00000
     80       0.6675      2.00000
     81       0.6829      2.00000
     82       0.7168      2.00000
     83       0.7852      2.00000
     84       0.7917      2.00000
     85       0.9862      2.00000
     86       1.0025      2.00000
     87       1.0912      2.00000
     88       1.4828      2.00000
     89       3.5111      0.00000
     90       3.7003      0.00000
     91       3.8202      0.00000
     92       3.9143      0.00000
     93       4.1022      0.00000
     94       4.1318      0.00000
     95       5.6547      0.00000
     96       6.0283      0.00000
     97       6.2051      0.00000
     98       6.2813      0.00000
     99       6.3109      0.00000
    100       6.3373      0.00000
    101       6.5665      0.00000
[...]
     69       0.3333      2.00000
     70       0.3333      2.00000
     71       0.3333      2.00000
     72       0.3333      2.00000
     73       0.4671      2.00000
     74       0.4671      2.00000
     75       0.4671      2.00000
     76       0.4671      2.00000
     77       0.5932      2.00000
     78       0.5932      2.00000
     79       0.5932      2.00000
     80       0.5932      2.00000
     81       0.7009      2.00000
     82       0.7009      2.00000
     83       0.7009      2.00000
     84       0.7009      2.00000
     85       0.9202      2.00000
     86       0.9202      2.00000
     87       0.9202      2.00000
     88       0.9202      2.00000
     89       4.1346      0.00000
     90       4.1346      0.00000
     91       4.1346      0.00000
     92       4.1346      0.00000
     93       5.1296      0.00000
     94       5.1296      0.00000
     95       5.1296      0.00000
     96       5.1296      0.00000
     97       6.0546      0.00000
     98       6.0546      0.00000
     99       6.0546      0.00000
    100       6.0546      0.00000
    101       6.8619      0.00000
    102       6.8619      0.00000
    103       6.8619      0.00000
    104       6.8619      0.00000
    105       7.0206      0.00000
    106       7.0206      0.00000
    107       7.0206      0.00000
    108       7.0206      0.00000
    109       7.1783      0.00000
    110       7.1783      0.00000
    111       7.1783      0.00000
    112       7.1783      0.00000
    113       7.5625      0.00000
    114       7.5625      0.00000
    115       7.5625      0.00000
    116       7.5625      0.00000
    117       7.9268      0.00000
    118       7.9268      0.00000
    119       7.9272      0.00000
    120       7.9281      0.00000

 k-point    48 :       0.5000    0.5000    0.5000
  band No.  band energies     occupation 
      1     -19.0579      2.00000
      2     -19.0579      2.00000
      3     -19.0579      2.00000
      4     -19.0579      2.00000
      5     -14.8716      2.00000
      6     -14.8716      2.00000
      7     -14.8716      2.00000
      8     -14.8716      2.00000
      9     -14.8621      2.00000
     10     -14.8621      2.00000
     11     -14.8621      2.00000
     12     -14.8621      2.00000
     13     -14.8304      2.00000
     14     -14.8304      2.00000
     15     -14.8304      2.00000
     16     -14.8304      2.00000
     17     -14.8252      2.00000
     18     -14.8252      2.00000
     19     -14.8252      2.00000
     20     -14.8252      2.00000
     21     -14.8210      2.00000
     22     -14.8210      2.00000
     23     -14.8210      2.00000
     24     -14.8210      2.00000
     25     -10.0759      2.00000
     26     -10.0759      2.00000
     27     -10.0759      2.00000
     28     -10.0759      2.00000
     29      -9.8828      2.00000
     30      -9.8828      2.00000
     31      -9.8828      2.00000
     32      -9.8828      2.00000
     33      -9.7128      2.00000
     34      -9.7128      2.00000
     35      -9.7128      2.00000
     36      -9.7128      2.00000
     37      -5.9774      2.00000
     38      -5.9774      2.00000
     39      -5.9774      2.00000
     40      -5.9774      2.00000
     41      -5.9082      2.00000
     42      -5.9082      2.00000
     43      -5.9082      2.00000
     44      -5.9082      2.00000
     45      -5.8725      2.00000
     46      -5.8725      2.00000
     47      -5.8725      2.00000
     48      -5.8725      2.00000
     49      -5.7865      2.00000
     50      -5.7865      2.00000
     51      -5.7865      2.00000
     52      -5.7865      2.00000
     53      -1.3385      2.00000
     54      -1.3385      2.00000
     55      -1.3385      2.00000
     56      -1.3385      2.00000
     57      -0.7475      2.00000
     58      -0.7475      2.00000
     59      -0.7475      2.00000
     60      -0.7475      2.00000
     61      -0.3079      2.00000
     62      -0.3079      2.00000
     63      -0.3079      2.00000
     64      -0.3079      2.00000
     65       0.0351      2.00000
     66       0.0351      2.00000
     67       0.0351      2.00000
     68       0.0351      2.00000
     69       0.3968      2.00000
     70       0.3968      2.00000
     71       0.3968      2.00000
     72       0.3968      2.00000
     73       0.4553      2.00000
     74       0.4553      2.00000
     75       0.4553      2.00000
     76       0.4553      2.00000
     77       0.5505      2.00000
     78       0.5505      2.00000
     79       0.5505      2.00000
     80       0.5505      2.00000
     81       0.7087      2.00000
     82       0.7087      2.00000
     83       0.7087      2.00000
     84       0.7087      2.00000
     85       0.9588      2.00000
     86       0.9588      2.00000
     87       0.9588      2.00000
     88       0.9588      2.00000
     89       3.9599      0.00000
     90       3.9599      0.00000
     91       3.9599      0.00000
     92       3.9599      0.00000
     93       5.1335      0.00000
     94       5.1335      0.00000
     95       5.1335      0.00000
     96       5.1335      0.00000
     97       6.2203      0.00000
     98       6.2203      0.00000
     99       6.2203      0.00000
    100       6.2203      0.00000
    101       6.9667      0.00000
    102       6.9667      0.00000
    103       6.9667      0.00000
    104       6.9667      0.00000
    105       7.0523      0.00000
    106       7.0523      0.00000
    107       7.0523      0.00000
    108       7.0523      0.00000
    109       7.2270      0.00000
    110       7.2270      0.00000
    111       7.2270      0.00000
    112       7.2270      0.00000
    113       7.5363      0.00000
    114       7.5363      0.00000
    115       7.5363      0.00000
    116       7.5363      0.00000
    117       7.8929      0.00000
    118       7.8930      0.00000
    119       7.8933      0.00000
    120       7.8938      0.00000


--------------------------------------------------------------------------------------------------------


 soft charge-density along one line, spin component           1
         0         1         2         3         4         5         6         7         8         9
 total charge-density along one line
 
 pseudopotential strength for first ion, spin component:           1
 64.868  68.440  -0.006  -0.004   0.007  -0.007  -0.005   0.010
 68.440  72.212  -0.006  -0.004   0.008  -0.008  -0.005   0.010
 -0.006  -0.006  16.783   0.001   0.009  22.366   0.001   0.012
 -0.004  -0.004   0.001  16.773   0.000   0.001  22.354   0.000
  0.007   0.008   0.009   0.000  16.783   0.012   0.000  22.366
 -0.007  -0.008  22.366   0.001   0.012  29.817   0.002   0.016
 -0.005  -0.005   0.001  22.354   0.000   0.002  29.800   0.000
  0.010   0.010   0.012   0.000  22.366   0.016   0.000  29.816
  0.013   0.014   0.002   0.000  -0.001   0.002   0.000  -0.002
  0.001   0.001  -0.001  -0.001   0.000  -0.001  -0.002   0.000
 -0.008  -0.008   0.001  -0.001  -0.001   0.001  -0.001  -0.001
  0.000   0.000   0.000   0.002  -0.001   0.000   0.002  -0.001
 -0.000  -0.000   0.001  -0.000   0.002   0.001  -0.000   0.002
 total augmentation occupancy for first ion, spin component:           1
  2.000   0.000   0.000   0.000   0.000   0.000   0.000   0.000   0.000   0.000   0.000   0.000   0.000
  0.000   0.000   0.000   0.000   0.000   0.000   0.000   0.000   0.000   0.000   0.000   0.000   0.000
  0.000   0.000   1.667   0.000   0.000   0.000   0.000   0.000   0.000   0.000   0.000   0.000   0.000
  0.000   0.000   0.000   1.667   0.000   0.000   0.000   0.000   0.000   0.000   0.000   0.000   0.000
  0.000   0.000   0.000   0.000   1.667   0.000   0.000   0.000   0.000   0.000   0.000   0.000   0.000
  0.000   0.000   0.000   0.000   0.000   0.000   0.000   0.000   0.000   0.000   0.000   0.000   0.000
  0.000   0.000   0.000   0.000   0.000   0.000   0.000   0.000   0.000   0.000   0.000   0.000   0.000
  0.000   0.000   0.000   0.000   0.000   0.000   0.000   0.000   0.000   0.000   0.000   0.000   0.000
  0.000   0.000   0.000   0.000   0.000   0.000   0.000   0.000   0.000   0.000   0.000   0.000   0.000
  0.000   0.000   0.000   0.000   0.000   0.000   0.000   0.000   0.000   0.000   0.000   0.000   0.000
  0.000   0.000   0.000   0.000   0.000   0.000   0.000   0.000   0.000   0.000   0.000   0.000   0.000
  0.000   0.000   0.000   0.000   0.000   0.000   0.000   0.000   0.000   0.000   0.000   0.000   0.000
  0.000   0.000   0.000   0.000   0.000   0.000   0.000   0.000   0.000   0.000   0.000   0.000   0.000


------------------------ aborting loop because EDIFF is reached ----------------------------------------


 


 total charge     
 
# of ion       s       p       d       tot
------------------------------------------
    1        1.506   2.792   0.007   4.304
    2        1.506   2.792   0.007   4.304
    3        1.504   2.814   0.006   4.325
    4        1.504   2.814   0.006   4.325
    5        1.506   2.792   0.007   4.304
    6        1.506   2.792   0.007   4.304
    7        1.504   2.814   0.006   4.324
    8        1.504   2.814   0.006   4.324
    9        1.505   2.804   0.007   4.316
   10        1.505   2.804   0.007   4.316
   11        1.505   2.804   0.007   4.315
   12        1.505   2.804   0.007   4.315
   13        1.489   0.485   9.838  11.812
   14        1.488   0.485   9.838  11.811
   15        1.488   0.485   9.838  11.812
   16        1.489   0.485   9.838  11.812
   17        1.836   4.707   0.024   6.566
   18        1.836   4.707   0.024   6.566
   19        1.836   4.707   0.024   6.566
   20        1.836   4.707   0.024   6.566
--------------------------------------------------
tot         31.355  54.410  39.526 125.291
 
    CHARGE:  cpu time    3.1765: real time    3.4409
    FORLOC:  cpu time    0.0120: real time    0.0214
    FORNL :  cpu time    7.3109: real time    7.3817
    STRESS:  cpu time   21.6257: real time   21.7175
    FORCOR:  cpu time    0.1600: real time    0.2602
    FORHAR:  cpu time    0.0470: real time    0.0576
    OFIELD:  cpu time    0.0010: real time    0.0413

  FORCE on cell =-STRESS in cart. coord.  units (eV):
  Direction    XX          YY          ZZ          XY          YZ          ZX
  --------------------------------------------------------------------------------------
  Alpha Z   274.57590   274.57590   274.57590
  Ewald   -2951.30367 -2917.58973 -2865.05795    -0.00001     0.00001     0.00000
  Hartree  1155.93739  1177.60223  1206.93944     0.00000    -0.00000    -0.00000
  E(xc)    -729.22322  -729.16384  -729.13515    -0.00000     0.00000    -0.00000
  Local   -1684.08444 -1741.04596 -1821.12871     0.00001    -0.00000     0.00000
  n-local  1991.30428  1991.92351  1991.42149    -1.22394     0.01870    -0.00786
  augment    -3.30285    -3.83572    -3.48477     0.00000    -0.00000    -0.00000
  Kinetic  1950.02545  1953.07904  1949.70516    -1.37075    -0.00939    -0.02291
  Fock        0.00000     0.00000     0.00000     0.00000     0.00000     0.00000
  -------------------------------------------------------------------------------------
  Total       3.92884     5.54544     3.83540     0.00000     0.00000     0.00000
  in kB       6.56491     9.26619     6.40879     0.00000     0.00000     0.00000
  external pressure =        7.41 kB  Pullay stress =        0.00 kB


 VOLUME and BASIS-vectors are now :
 -----------------------------------------------------------------------------
  energy-cutoff  :      520.00
  volume of cell :      958.84
      direct lattice vectors                 reciprocal lattice vectors
     8.675100327  0.000000000  0.000000000     0.115272442  0.000000000  0.000000000
     0.000000000  8.824000359  0.000000000     0.000000000  0.113327285  0.000000000
     0.000000000  0.000000000 12.525799751     0.000000000  0.000000000  0.079835222

  length of vectors
     8.675100327  8.824000359 12.525799751     0.115272442  0.113327285  0.079835222


 FORCES acting on ions
    electron-ion (+dipol)            ewald-force                    non-local-force                 convergence-correction
 -----------------------------------------------------------------------------------------------
   0.239E+02 -.190E+02 -.172E+02   -.244E+02 0.195E+02 0.175E+02   0.528E+00 -.463E+00 -.365E+00   -.680E-03 0.632E-04 -.114E-02
   -.239E+02 0.190E+02 0.172E+02   0.244E+02 -.195E+02 -.175E+02   -.528E+00 0.463E+00 0.365E+00   0.613E-03 -.126E-03 0.112E-02
   0.239E+02 0.190E+02 0.172E+02   -.244E+02 -.195E+02 -.175E+02   0.528E+00 0.463E+00 0.365E+00   -.616E-03 -.654E-04 0.112E-02
   -.239E+02 -.190E+02 -.172E+02   0.244E+02 0.195E+02 0.175E+02   -.528E+00 -.463E+00 -.365E+00   0.684E-03 0.123E-03 -.114E-02
   -.239E+02 0.190E+02 -.172E+02   0.244E+02 -.195E+02 0.175E+02   -.528E+00 0.463E+00 -.365E+00   0.615E-03 -.127E-03 -.113E-02
   0.239E+02 -.190E+02 0.172E+02   -.244E+02 0.195E+02 -.175E+02   0.528E+00 -.463E+00 0.365E+00   -.680E-03 0.650E-04 0.114E-02
   -.239E+02 -.190E+02 0.172E+02   0.244E+02 0.195E+02 -.175E+02   -.528E+00 -.463E+00 0.365E+00   0.684E-03 0.125E-03 0.113E-02
   0.239E+02 0.190E+02 -.172E+02   -.244E+02 -.195E+02 0.175E+02   0.528E+00 0.463E+00 -.365E+00   -.618E-03 -.665E-04 -.113E-02
   0.347E+02 -.120E+02 -.105E-03   -.354E+02 0.124E+02 -.595E-04   0.678E+00 -.385E+00 0.434E-18   -.657E-03 0.941E-03 0.416E-04
   -.347E+02 0.120E+02 0.238E-05   0.354E+02 -.124E+02 0.101E-04   -.678E+00 0.385E+00 -.434E-18   0.595E-03 -.910E-03 -.125E-04
   0.347E+02 0.120E+02 0.228E-05   -.354E+02 -.124E+02 0.101E-04   0.678E+00 0.385E+00 0.434E-18   -.588E-03 -.929E-03 -.125E-04
   -.347E+02 -.120E+02 -.105E-03   0.354E+02 0.124E+02 -.595E-04   -.678E+00 -.385E+00 -.434E-18   0.618E-03 0.932E-03 0.416E-04
   -.226E-05 -.196E-04 0.731E-05   -.946E-05 -.823E-04 0.310E-04   0.000E+00 0.000E+00 0.000E+00   0.458E-05 0.752E-04 -.285E-04
   -.185E-04 -.535E-05 0.104E-04   -.780E-04 -.228E-04 0.438E-04   0.000E+00 0.000E+00 0.000E+00   0.724E-04 0.187E-04 -.404E-04
   -.379E-07 -.188E-04 0.329E-05   -.251E-06 -.790E-04 0.141E-04   0.000E+00 0.000E+00 0.000E+00   -.369E-05 0.721E-04 -.113E-04
   -.208E-04 -.464E-05 0.243E-06   -.872E-04 -.195E-04 0.123E-05   0.000E+00 0.000E+00 0.000E+00   0.807E-04 0.156E-04 0.549E-06
   -.937E+01 -.266E+02 0.325E-05   0.945E+01 0.266E+02 0.141E-04   -.737E-01 0.509E-01 0.000E+00   -.808E-04 0.155E-02 -.169E-04
   0.937E+01 0.266E+02 -.139E-03   -.945E+01 -.266E+02 -.367E-04   0.737E-01 -.509E-01 0.000E+00   0.336E-04 -.158E-02 0.698E-04
   -.937E+01 0.266E+02 -.139E-03   0.945E+01 -.266E+02 -.367E-04   -.737E-01 -.509E-01 -.136E-19   -.424E-04 -.159E-02 0.698E-04
   0.937E+01 -.266E+02 0.330E-05   -.945E+01 0.266E+02 0.141E-04   0.737E-01 0.509E-01 0.136E-19   0.630E-04 0.156E-02 -.169E-04
 -----------------------------------------------------------------------------------------------
   0.128E-03 -.195E-03 -.548E-03   0.178E-14 0.284E-13 -.185E-13   -.125E-15 -.555E-16 0.000E+00   0.966E-04 0.146E-03 0.526E-04
 
 
 POSITION                                       TOTAL-FORCE (eV/Angst)
 -----------------------------------------------------------------------------------
      1.66797      2.69903      6.76746         0.000523      0.000248      0.000743
      7.00713      6.12497      5.75834        -0.000523     -0.000248     -0.000743
      6.00552      1.71297      5.75834         0.000523     -0.000248     -0.000743
      2.66958      7.11103      6.76746        -0.000523      0.000248      0.000743
      7.00713      6.12497      0.50456        -0.000523     -0.000248      0.000743
      1.66797      2.69903     12.02124         0.000523      0.000248     -0.000743
      2.66958      7.11103     12.02124        -0.000523      0.000248     -0.000743
      6.00552      1.71297      0.50456         0.000523     -0.000248      0.000743
      7.96010      0.00066      9.39435        -0.001013      0.000091     -0.000000
      0.71500      8.82334      3.13145         0.001013     -0.000091      0.000000
      3.62255      4.41134      3.13145        -0.001013     -0.000091      0.000000
      5.05255      4.41266      9.39435         0.001013      0.000091     -0.000000
      0.00000      0.00000      6.26290         0.000000      0.000000     -0.000000
      4.33755      4.41200      6.26290         0.000000      0.000000     -0.000000
      0.00000      0.00000      0.00000         0.000000      0.000000     -0.000000
      4.33755      4.41200      0.00000         0.000000      0.000000     -0.000000
      8.48474      3.74480      3.13145        -0.000251     -0.000341     -0.000000
      0.19036      5.07920      9.39435         0.000251      0.000341     -0.000000
      4.14719      0.66720      9.39435        -0.000251      0.000341     -0.000000
      4.52791      8.15680      3.13145         0.000251     -0.000341      0.000000
 -----------------------------------------------------------------------------------
    total drift:                                0.000225     -0.000049     -0.000495


--------------------------------------------------------------------------------------------------------



  FREE ENERGIE OF THE ION-ELECTRON SYSTEM (eV)
  ---------------------------------------------------
  free  energy   TOTEN  =       -56.59451971 eV

  energy  without entropy=      -56.59451971  energy(sigma->0) =      -56.59451971
 


--------------------------------------------------------------------------------------------------------


    POTLOK:  cpu time    0.1790: real time    0.2637


--------------------------------------------------------------------------------------------------------


 writing wavefunctions
     LOOP+:  cpu time  540.5558: real time  551.8204
    4ORBIT:  cpu time    0.0000: real time    0.0001
 


 total charge     
 
# of ion       s       p       d       tot
------------------------------------------
    1        1.506   2.792   0.007   4.304
    2        1.506   2.792   0.007   4.304
    3        1.504   2.814   0.006   4.325
    4        1.504   2.814   0.006   4.325
    5        1.506   2.792   0.007   4.304
    6        1.506   2.792   0.007   4.304
    7        1.504   2.814   0.006   4.324
    8        1.504   2.814   0.006   4.324
    9        1.505   2.804   0.007   4.316
   10        1.505   2.804   0.007   4.316
   11        1.505   2.804   0.007   4.315
   12        1.505   2.804   0.007   4.315
   13        1.489   0.485   9.838  11.812
   14        1.488   0.485   9.838  11.811
   15        1.488   0.485   9.838  11.812
   16        1.489   0.485   9.838  11.812
   17        1.836   4.707   0.024   6.566
   18        1.836   4.707   0.024   6.566
   19        1.836   4.707   0.024   6.566
   20        1.836   4.707   0.024   6.566
--------------------------------------------------
tot         31.355  54.410  39.526 125.291
 
 BZINTS: Fermi energy:  1.635103;176.000000 electrons
         Band energy:***********;  BLOECHL correction:  0.000000

 total amount of memory used by VASP MPI-rank0   378901. kBytes
=======================================================================

   base      :      30000. kBytes
   nonl-proj :     273896. kBytes
   fftplans  :       9699. kBytes
   grid      :      14648. kBytes
   one-center:        155. kBytes
   wavefun   :      50503. kBytes
 
  
  
 General timing and accounting informations for this job:
 ========================================================
  
                  Total CPU time used (sec):      600.781
                            User time (sec):      496.268
                          System time (sec):      104.513
                         Elapsed time (sec):      623.648
  
                   Maximum memory used (kb):      364252.
                   Average memory used (kb):           0.
  
                          Minor page faults:       114528
                          Major page faults:          386
                 Voluntary context switches:        10576
