 vasp.5.4.4.18Apr17-6-g9f103f2a35 (build Aug 19 2019 13:15:05) complex          
  
 executed on             LinuxIFC date 2020.04.22  10:20:21
 running on  120 total cores
 distrk:  each k-point on  120 cores,    1 groups
 distr:  one band on NCORES_PER_BAND=   1 cores,  120 groups


--------------------------------------------------------------------------------------------------------


 INCAR:
 POTCAR:    PAW_PBE I 08Apr2002                   
 POTCAR:    PAW_PBE Pb_d 06Sep2000                
 POTCAR:    PAW_PBE Cs_sv 08Apr2002               

 ----------------------------------------------------------------------------- 
|                                                                             |
|           W    W    AA    RRRRR   N    N  II  N    N   GGGG   !!!           |
|           W    W   A  A   R    R  NN   N  II  NN   N  G    G  !!!           |
|           W    W  A    A  R    R  N N  N  II  N N  N  G       !!!           |
|           W WW W  AAAAAA  RRRRR   N  N N  II  N  N N  G  GGG   !            |
|           WW  WW  A    A  R   R   N   NN  II  N   NN  G    G                |
|           W    W  A    A  R    R  N    N  II  N    N   GGGG   !!!           |
|                                                                             |
|      For optimal performance we recommend to set                            |
|        NCORE= 4 - approx SQRT( number of cores)                             |
|      NCORE specifies how many cores store one orbital (NPAR=cpu/NCORE).     |
|      This setting can  greatly improve the performance of VASP for DFT.     |
|      The default,   NCORE=1            might be grossly inefficient         |
|      on modern multi-core architectures or massively parallel machines.     |
|      Do your own testing !!!!                                               |
|      Unfortunately you need to use the default for GW and RPA calculations. |
|      (for HF NCORE is supported but not extensively tested yet)             |
|                                                                             |
 ----------------------------------------------------------------------------- 

 POTCAR:    PAW_PBE I 08Apr2002                   
   VRHFIN =I : s2p5                                                             
   LEXCH  = PE                                                                  
   EATOM  =   315.8678 eV,   23.2156 Ry                                         
                                                                                
   TITEL  = PAW_PBE I 08Apr2002                                                 
   LULTRA =        F    use ultrasoft PP ?                                      
   IUNSCR =        1    unscreen: 0-lin 1-nonlin 2-no                           
   RPACOR =    2.200    partial core radius                                     
   POMASS =  126.904; ZVAL   =    7.000    mass and valenz                      
   RCORE  =    2.300    outmost cutoff radius                                   
   RWIGS  =    2.810; RWIGS  =    1.487    wigner-seitz radius (au A)           
   ENMAX  =  175.647; ENMIN  =  131.735 eV                                      
   ICORE  =        3    local potential                                         
   LCOR   =        T    correct aug charges                                     
   LPAW   =        T    paw PP                                                  
   EAUG   =  370.139                                                            
   DEXC   =    0.000                                                            
   RMAX   =    2.359    core radius for proj-oper                               
   RAUG   =    1.300    factor for augmentation sphere                          
   RDEP   =    2.392    radius for radial grids                                 
   RDEPT  =    2.170    core radius for aug-charge                              
                                                                                
   Atomic configuration                                                         
   13 entries                                                                   
     n  l   j            E        occ.                                          
     1  0  0.50    -32976.3739   2.0000                                         
     2  0  0.50     -5094.5933   2.0000                                         
     2  1  1.50     -4572.0131   6.0000                                         
     3  0  0.50     -1028.2813   2.0000                                         
     3  1  1.50      -859.0250   6.0000                                         
     3  2  2.50      -605.7620  10.0000                                         
     4  0  0.50      -180.5540   2.0000                                         
     4  1  1.50      -127.5306   6.0000                                         
     4  2  2.50       -50.2720  10.0000                                         
     5  0  0.50       -17.4058   2.0000                                         
     5  1  0.50        -7.0851   5.0000                                         
     5  2  1.50        -7.0750   0.0000                                         
     4  3  2.50        -7.0750   0.0000                                         
   Description                                                                  
     l       E           TYP  RCUT    TYP  RCUT                                 
     0    -17.4058016     23  2.300                                             
     0    -18.7663842     23  2.300                                             
     1     -7.0850686     23  2.300                                             
     1     -4.2150896     23  2.300                                             
     2     -7.0750295     23  2.300                                             
     3     -1.3605826     23  2.300                                             
  local pseudopotential read in
  partial core-charges read in
  partial kinetic energy density read in
  atomic valenz-charges read in
  non local Contribution for L=           0  read in
    real space projection operators read in
  non local Contribution for L=           0  read in
    real space projection operators read in
  non local Contribution for L=           1  read in
    real space projection operators read in
  non local Contribution for L=           1  read in
    real space projection operators read in
  non local Contribution for L=           2  read in
    real space projection operators read in
    PAW grid and wavefunctions read in
 
   number of l-projection  operators is LMAX  =           5
   number of lm-projection operators is LMMAX =          13
 
 POTCAR:    PAW_PBE Pb_d 06Sep2000                
   VRHFIN =Pb:                                                                  
   LEXCH  = PE                                                                  
   EATOM  =  1661.6185 eV,  122.1255 Ry                                         
                                                                                
   TITEL  = PAW_PBE Pb_d 06Sep2000                                              
   LULTRA =        F    use ultrasoft PP ?                                      
   IUNSCR =        1    unscreen: 0-lin 1-nonlin 2-no                           
   RPACOR =    2.200    partial core radius                                     
   POMASS =  207.200; ZVAL   =   14.000    mass and valenz                      
   RCORE  =    2.500    outmost cutoff radius                                   
   RWIGS  =    3.260; RWIGS  =    1.725    wigner-seitz radius (au A)           
   ENMAX  =  237.835; ENMIN  =  178.376 eV                                      
   ICORE  =        3    local potential                                         
   LCOR   =        T    correct aug charges                                     
   LPAW   =        T    paw PP                                                  
   EAUG   =  391.914                                                            
   DEXC   =    0.000                                                            
   RMAX   =    2.565    core radius for proj-oper                               
   RAUG   =    1.300    factor for augmentation sphere                          
   RDEP   =    2.643    radius for radial grids                                 
   RDEPT  =    2.092    core radius for aug-charge                              
                                                                                
   Atomic configuration                                                         
   16 entries                                                                   
     n  l   j            E        occ.                                          
     1  0  0.50    -88091.8466   2.0000                                         
     2  0  0.50    -15753.4197   2.0000                                         
     2  1  1.50    -13508.1797   6.0000                                         
     3  0  0.50     -3781.7194   2.0000                                         
     3  1  1.50     -3138.2529   6.0000                                         
     3  2  2.50     -2483.2977  10.0000                                         
     4  0  0.50      -856.2895   2.0000                                         
     4  1  1.50      -645.4942   6.0000                                         
     4  2  2.50      -401.8768  10.0000                                         
     4  3  3.50      -132.9059  14.0000                                         
     5  0  0.50      -144.0950   2.0000                                         
     5  1  1.50       -85.7879   6.0000                                         
     5  2  2.50       -21.1769  10.0000                                         
     6  0  0.50       -12.0372   2.0000                                         
     6  1  1.50        -3.4971   2.0000                                         
     5  3  2.50        -2.7212   0.0000                                         
   Description                                                                  
     l       E           TYP  RCUT    TYP  RCUT                                 
     2    -21.1768523     23  2.500                                             
     2      1.3605826     23  2.500                                             
     0    -12.0371562     23  2.500                                             
     0     13.6058260     23  2.500                                             
     1     -3.4971339     23  2.500                                             
     1     13.6058260     23  2.500                                             
     3     -1.3605826      7  2.500                                             
  local pseudopotential read in
  partial core-charges read in
  partial kinetic energy density read in
  atomic valenz-charges read in
  non local Contribution for L=           2  read in
    real space projection operators read in
  non local Contribution for L=           2  read in
    real space projection operators read in
  non local Contribution for L=           0  read in
    real space projection operators read in
  non local Contribution for L=           0  read in
    real space projection operators read in
  non local Contribution for L=           1  read in
    real space projection operators read in
  non local Contribution for L=           1  read in
    real space projection operators read in
    PAW grid and wavefunctions read in
 
   number of l-projection  operators is LMAX  =           6
   number of lm-projection operators is LMMAX =          18
 
 POTCAR:    PAW_PBE Cs_sv 08Apr2002               
   VRHFIN =Cs: 5s5p6s                                                           
   LEXCH  = PE                                                                  
   EATOM  =   555.6835 eV,   40.8416 Ry                                         
                                                                                
   TITEL  = PAW_PBE Cs_sv 08Apr2002                                             
   LULTRA =        F    use ultrasoft PP ?                                      
   IUNSCR =        1    unscreen: 0-lin 1-nonlin 2-no                           
   RPACOR =    2.200    partial core radius                                     
   POMASS =  132.900; ZVAL   =    9.000    mass and valenz                      
   RCORE  =    2.500    outmost cutoff radius                                   
   RWIGS  =    2.500; RWIGS  =    1.323    wigner-seitz radius (au A)           
   ENMAX  =  220.318; ENMIN  =  165.238 eV                                      
   RCLOC  =    2.207    cutoff for local pot                                    
   LCOR   =        T    correct aug charges                                     
   LPAW   =        T    paw PP                                                  
   EAUG   =  407.933                                                            
   DEXC   =    0.000                                                            
   RMAX   =    2.554    core radius for proj-oper                               
   RAUG   =    1.300    factor for augmentation sphere                          
   RDEP   =    2.590    radius for radial grids                                 
   RDEPT  =    2.117    core radius for aug-charge                              
                                                                                
   Atomic configuration                                                         
   13 entries                                                                   
     n  l   j            E        occ.                                          
     1  0  0.50    -35790.1377   2.0000                                         
     2  0  0.50     -5613.6201   2.0000                                         
     2  1  1.50     -5035.0101   6.0000                                         
     3  0  0.50     -1167.0767   2.0000                                         
     3  1  1.50      -980.9754   6.0000                                         
     3  2  2.50      -708.0703  10.0000                                         
     4  0  0.50      -220.2386   2.0000                                         
     4  1  1.50      -160.7596   6.0000                                         
     4  2  2.50       -74.2354  10.0000                                         
     5  0  0.50       -26.7287   2.0000                                         
     6  0  0.50        -2.0862   1.0000                                         
     5  1  1.50       -13.5159   6.0000                                         
     5  2  2.50        -0.4136   0.0000                                         
   Description                                                                  
     l       E           TYP  RCUT    TYP  RCUT                                 
     0    -26.7287425     23  1.900                                             
     0     -2.0862306     23  1.900                                             
     1    -13.5158719     23  2.500                                             
     1     -2.7211652     23  2.500                                             
     2     -0.4136171     23  2.500                                             
  local pseudopotential read in
  partial core-charges read in
  partial kinetic energy density read in
  atomic valenz-charges read in
  non local Contribution for L=           0  read in
    real space projection operators read in
  non local Contribution for L=           0  read in
    real space projection operators read in
  non local Contribution for L=           1  read in
    real space projection operators read in
  non local Contribution for L=           1  read in
    real space projection operators read in
  non local Contribution for L=           2  read in
    real space projection operators read in
    PAW grid and wavefunctions read in
 
   number of l-projection  operators is LMAX  =           5
   number of lm-projection operators is LMMAX =          13
 
 Optimization of the real space projectors (new method)

 maximal supplied QI-value         = 16.25
 optimisation between [QCUT,QGAM] = [ 10.73, 21.61] = [ 32.22,130.83] Ry 
 Optimized for a Real-space Cutoff    1.30 Angstroem

   l    n(q)    QCUT    max X(q) W(low)/X(q) W(high)/X(q)  e(spline) 
   0      8    10.726   194.483    0.28E-03    0.91E-04    0.87E-07
   0      8    10.726   190.334    0.27E-03    0.88E-04    0.85E-07
   1      8    10.726   116.687    0.16E-03    0.48E-03    0.15E-06
   1      8    10.726    88.696    0.16E-03    0.47E-03    0.15E-06
   2      7    10.726     4.877    0.19E-03    0.30E-04    0.27E-07
 Optimization of the real space projectors (new method)

 maximal supplied QI-value         = 15.12
 optimisation between [QCUT,QGAM] = [ 10.73, 21.62] = [ 32.26,130.87] Ry 
 Optimized for a Real-space Cutoff    1.38 Angstroem

   l    n(q)    QCUT    max X(q) W(low)/X(q) W(high)/X(q)  e(spline) 
   2      8    10.734     3.846    0.42E-03    0.65E-04    0.45E-07
   2      8    10.734     8.593    0.38E-03    0.21E-03    0.11E-06
   0      9    10.734    20.082    0.60E-04    0.15E-03    0.97E-07
   0      9    10.734     8.597    0.89E-04    0.21E-03    0.14E-06
   1      8    10.734    33.223    0.23E-03    0.26E-03    0.11E-06
   1      8    10.734    15.899    0.21E-03    0.24E-03    0.10E-06
 Optimization of the real space projectors (new method)

 maximal supplied QI-value         = 15.12
 optimisation between [QCUT,QGAM] = [ 10.73, 21.62] = [ 32.26,130.87] Ry 
 Optimized for a Real-space Cutoff    1.55 Angstroem

   l    n(q)    QCUT    max X(q) W(low)/X(q) W(high)/X(q)  e(spline) 
   0     10    10.734    25.322    0.12E-03    0.12E-04    0.48E-06
   0     10    10.734    99.187    0.12E-03    0.12E-04    0.47E-06
   1     10    10.734    11.761    0.20E-03    0.42E-03    0.27E-06
   1     10    10.734     8.275    0.21E-03    0.46E-03    0.30E-06
   2      9    10.734     3.829    0.32E-03    0.79E-04    0.33E-06
  PAW_PBE I 08Apr2002                   :
 energy of atom  1       EATOM= -315.8678
 kinetic energy error for atom=    0.0010 (will be added to EATOM!!)
  PAW_PBE Pb_d 06Sep2000                :
 energy of atom  2       EATOM=-1661.6185
 kinetic energy error for atom=    0.0063 (will be added to EATOM!!)
  PAW_PBE Cs_sv 08Apr2002               :
 energy of atom  3       EATOM= -555.6835
 kinetic energy error for atom=    0.0031 (will be added to EATOM!!)
 
 
 POSCAR: CsPbI3_325K                             
  positions in direct lattice
  velocities in cartesian coordinates
 exchange correlation table for  LEXCH =        8
   RHO(1)=    0.500       N(1)  =     2000
   RHO(2)=  100.500       N(2)  =     4000
 


--------------------------------------------------------------------------------------------------------


 ion  position               nearest neighbor table
   1  0.192  0.306  0.540-  14 3.21  13 3.21
   2  0.808  0.694  0.460-  14 3.21  13 3.21
   3  0.692  0.194  0.460-  13 3.21  14 3.21
   4  0.308  0.806  0.540-  13 3.21  14 3.21
   5  0.808  0.694  0.040-  16 3.21  15 3.21
   6  0.192  0.306  0.960-  16 3.21  15 3.21
   7  0.308  0.806  0.960-  15 3.21  16 3.21
   8  0.692  0.194  0.040-  15 3.21  16 3.21
   9  0.918  0.000  0.750-  15 3.21  13 3.21
  10  0.082  1.000  0.250-  13 3.21  15 3.21
  11  0.418  0.500  0.250-  14 3.21  16 3.21
  12  0.582  0.500  0.750-  16 3.21  14 3.21
  13  0.000  0.000  0.500-   3 3.21   4 3.21  10 3.21   9 3.21   1 3.21   2 3.21
  14  0.500  0.500  0.500-   2 3.21   1 3.21  11 3.21  12 3.21   3 3.21   4 3.21
  15  0.000  0.000  0.000-   8 3.21   7 3.21   9 3.21  10 3.21   6 3.21   5 3.21
  16  0.500  0.500  0.000-   5 3.21   6 3.21  12 3.21  11 3.21   8 3.21   7 3.21
  17  0.978  0.424  0.250-
  18  0.022  0.576  0.750-
  19  0.478  0.076  0.750-
  20  0.522  0.924  0.250-
 
  LATTYP: Found a simple orthorhombic cell.
 ALAT       =     8.6751003265
 B/A-ratio  =     1.0171640703
 C/A-ratio  =     1.4438795264
  
  Lattice vectors:
  
 A1 = (   8.6751003265,   0.0000000000,   0.0000000000)
 A2 = (   0.0000000000,   8.8240003586,   0.0000000000)
 A3 = (   0.0000000000,   0.0000000000,  12.5257997513)


Analysis of symmetry for initial positions (statically):
=====================================================================
 Subroutine PRICEL returns:
 Original cell was already a primitive cell.
 

 Routine SETGRP: Setting up the symmetry group for a 
 simple orthorhombic supercell.


 Subroutine GETGRP returns: Found  8 space group operations
 (whereof  2 operations were pure point group operations)
 out of a pool of  8 trial point group operations.


The static configuration has the point symmetry S_2 .
 The point group associated with its full space group is D_2h.


Analysis of symmetry for dynamics (positions and initial velocities):
=====================================================================
 Subroutine PRICEL returns:
 Original cell was already a primitive cell.
 

 Routine SETGRP: Setting up the symmetry group for a 
 simple orthorhombic supercell.


 Subroutine GETGRP returns: Found  8 space group operations
 (whereof  2 operations were pure point group operations)
 out of a pool of  8 trial point group operations.


The dynamic configuration has the point symmetry S_2 .
 The point group associated with its full space group is D_2h.


 Subroutine INISYM returns: Found  8 space group operations
 (whereof  2 operations are pure point group operations),
 and found     1 'primitive' translations

 
 
 KPOINTS: KPT-Resolved Value to Generate K-Mesh: 0

Automatic generation of k-mesh.
Space group operators:
 irot       det(A)        alpha          n_x          n_y          n_z        tau_x        tau_y        tau_z
    1     1.000000     0.000000     1.000000     0.000000     0.000000     0.000000     0.000000     0.000000
    2    -1.000000     0.000000     1.000000     0.000000     0.000000     0.000000     0.000000     0.000000
    3     1.000000   180.000000     0.000000     0.000000     1.000000     0.000000     0.000000     0.500000
    4    -1.000000   180.000000     0.000000     0.000000     1.000000     0.000000     0.000000     0.500000
    5     1.000000   180.000000     0.000000     1.000000     0.000000     0.500000     0.500000     0.500000
    6    -1.000000   180.000000     0.000000     1.000000     0.000000     0.500000     0.500000     0.500000
    7     1.000000   179.999999     1.000000     0.000000     0.000000     0.500000     0.500000     0.000000
    8    -1.000000   179.999999     1.000000     0.000000     0.000000     0.500000     0.500000     0.000000
 
 Subroutine IBZKPT returns following result:
 ===========================================
 
 Found      8 irreducible k-points:
 
 Following reciprocal coordinates:
            Coordinates               Weight
  0.000000  0.000000  0.000000      1.000000
  0.333333  0.000000  0.000000      2.000000
  0.000000  0.333333  0.000000      2.000000
  0.333333  0.333333  0.000000      4.000000
  0.000000  0.000000  0.500000      1.000000
  0.333333  0.000000  0.500000      2.000000
  0.000000  0.333333  0.500000      2.000000
  0.333333  0.333333  0.500000      4.000000
 
 Following cartesian coordinates:
            Coordinates               Weight
  0.000000  0.000000  0.000000      1.000000
  0.038424  0.000000  0.000000      2.000000
  0.000000  0.037776  0.000000      2.000000
  0.038424  0.037776  0.000000      4.000000
  0.000000  0.000000  0.039918      1.000000
  0.038424  0.000000  0.039918      2.000000
  0.000000  0.037776  0.039918      2.000000
  0.038424  0.037776  0.039918      4.000000
 
 TETIRR: Found     51 inequivalent tetrahedra from      108
 
 Subroutine IBZKPT_HF returns following result:
 ==============================================
 
 Found     18 k-points in 1st BZ
 the following     18 k-points will be used (e.g. in the exchange kernel)
 Following reciprocal coordinates:   # in IRBZ
  0.000000  0.000000  0.000000    0.05555556   1 t-inv F
  0.333333  0.000000  0.000000    0.05555556   2 t-inv F
  0.000000  0.333333  0.000000    0.05555556   3 t-inv F
  0.333333  0.333333  0.000000    0.05555556   4 t-inv F
  0.000000  0.000000  0.500000    0.05555556   5 t-inv F
  0.333333  0.000000  0.500000    0.05555556   6 t-inv F
  0.000000  0.333333  0.500000    0.05555556   7 t-inv F
  0.333333  0.333333  0.500000    0.05555556   8 t-inv F
 -0.333333  0.000000  0.000000    0.05555556   2 t-inv F
  0.000000 -0.333333  0.000000    0.05555556   3 t-inv F
 -0.333333 -0.333333  0.000000    0.05555556   4 t-inv F
 -0.333333  0.333333  0.000000    0.05555556   4 t-inv F
  0.333333 -0.333333  0.000000    0.05555556   4 t-inv F
 -0.333333  0.000000 -0.500000    0.05555556   6 t-inv F
  0.000000 -0.333333 -0.500000    0.05555556   7 t-inv F
 -0.333333 -0.333333 -0.500000    0.05555556   8 t-inv F
 -0.333333  0.333333 -0.500000    0.05555556   8 t-inv F
  0.333333 -0.333333  0.500000    0.05555556   8 t-inv F


--------------------------------------------------------------------------------------------------------




 Dimension of arrays:
   k-points           NKPTS =      8   k-points in BZ     NKDIM =     18   number of bands    NBANDS=    120
   number of dos      NEDOS =   2001   number of ions     NIONS =     20
   non local maximal  LDIM  =      6   non local SUM 2l+1 LMDIM =     18
   total plane-waves  NPLWV = 161280
   max r-space proj   IRMAX =   2694   max aug-charges    IRDMAX=  78029
   dimension x,y,z NGX =    48 NGY =   48 NGZ =   70
   dimension x,y,z NGXF=    96 NGYF=   96 NGZF=  140
   support grid    NGXF=   192 NGYF=  192 NGZF=  280
   ions per type =              12   4   4
   NGX,Y,Z   is equivalent  to a cutoff of   9.20,  9.04,  9.29 a.u.
   NGXF,Y,Z  is equivalent  to a cutoff of  18.40, 18.09, 18.58 a.u.

 SYSTEM =  unknown system                          
 POSCAR =  CsPbI3_325K                             

 Startparameter for this run:
   NWRITE =      2    write-flag & timer
   PREC   = normal    normal or accurate (medium, high low for compatibility)
   ISTART =      1    job   : 0-new  1-cont  2-samecut
   ICHARG =     11    charge: 1-file 2-atom 10-const
   ISPIN  =      1    spin polarized calculation?
   LNONCOLLINEAR =      F non collinear calculations
   LSORBIT =      F    spin-orbit coupling
   INIWAV =      1    electr: 0-lowe 1-rand  2-diag
   LASPH  =      F    aspherical Exc in radial PAW
   METAGGA=      F    non-selfconsistent MetaGGA calc.

 Electronic Relaxation 1
   ENCUT  =  520.0 eV  33.07 Ry    5.75 a.u.  15.01 15.26 21.67*2*pi/ulx,y,z
   ENINI  =  520.0     initial cutoff
   ENAUG  =  407.9 eV  augmentation charge cutoff
   NELM   =     60;   NELMIN=  2; NELMDL=  0     # of ELM steps 
   EDIFF  = 0.1E-05   stopping-criterion for ELM
   LREAL  =      T    real-space projection
   NLSPLINE    = F    spline interpolate recip. space projectors
   LCOMPAT=      F    compatible to vasp.4.4
   GGA_COMPAT  = T    GGA compatible to vasp.4.4-vasp.4.6
   LMAXPAW     = -100 max onsite density
   LMAXMIX     =    2 max onsite mixed and CHGCAR
   VOSKOWN=      0    Vosko Wilk Nusair interpolation
   ROPT   =   -0.00050  -0.00050  -0.00050
 Ionic relaxation
   EDIFFG = 0.1E-04   stopping-criterion for IOM
   NSW    =      0    number of steps for IOM
   NBLOCK =      1;   KBLOCK =      1    inner block; outer block 
   IBRION =     -1    ionic relax: 0-MD 1-quasi-New 2-CG
   NFREE  =      0    steps in history (QN), initial steepest desc. (CG)
   ISIF   =      0    stress and relaxation
   IWAVPR =     10    prediction:  0-non 1-charg 2-wave 3-comb
   ISYM   =      3    0-nonsym 1-usesym 2-fastsym
   LCORR  =      T    Harris-Foulkes like correction to forces

   POTIM  = 0.5000    time-step for ionic-motion
   TEIN   =    0.0    initial temperature
   TEBEG  =    0.0;   TEEND  =   0.0 temperature during run
   SMASS  =  -3.00    Nose mass-parameter (am)
   estimated Nose-frequenzy (Omega)   =  0.10E-29 period in steps =****** mass=  -0.172E-26a.u.
   SCALEE = 1.0000    scale energy and forces
   NPACO  =    256;   APACO  = 16.0  distance and # of slots for P.C.
   PSTRESS=    0.0 pullay stress

  Mass of Ions in am
   POMASS = 126.90207.20132.90
  Ionic Valenz
   ZVAL   =   7.00 14.00  9.00
  Atomic Wigner-Seitz radii
   RWIGS  =  -1.00 -1.00 -1.00
  virtual crystal weights 
   VCA    =   1.00  1.00  1.00
   NELECT =     176.0000    total number of electrons
   NUPDOWN=      -1.0000    fix difference up-down

 DOS related values:
   EMIN   =  10.00;   EMAX   =-10.00  energy-range for DOS
   EFERMI =   0.00
   ISMEAR =    -5;   SIGMA  =   0.05  broadening in eV -4-tet -1-fermi 0-gaus

 Electronic relaxation 2 (details)
   IALGO  =     58    algorithm
   LDIAG  =      T    sub-space diagonalisation (order eigenvalues)
   LSUBROT=      F    optimize rotation matrix (better conditioning)
   TURBO    =      0    0=normal 1=particle mesh
   IRESTART =      0    0=no restart 2=restart with 2 vectors
   NREBOOT  =      0    no. of reboots
   NMIN     =      0    reboot dimension
   EREF     =   0.00    reference energy to select bands
   IMIX   =      4    mixing-type and parameters
     AMIX     =   0.40;   BMIX     =  1.00
     AMIX_MAG =   1.60;   BMIX_MAG =  1.00
     AMIN     =   0.10
     WC   =   100.;   INIMIX=   1;  MIXPRE=   1;  MAXMIX= -45

 Intra band minimization:
   WEIMIN = 0.0000     energy-eigenvalue tresh-hold
   EBREAK =  0.21E-08  absolut break condition
   DEPER  =   0.30     relativ break condition  

   TIME   =   0.40     timestep for ELM

  volume/ion in A,a.u.               =      47.94       323.53
  Fermi-wavevector in a.u.,A,eV,Ry     =   0.930388  1.758178 11.777489  0.865621
  Thomas-Fermi vector in A             =   2.056771
 
 Write flags
   LWAVE        =      F    write WAVECAR
   LDOWNSAMPLE  =      F    k-point downsampling of WAVECAR
   LCHARG       =      F    write CHGCAR
   LVTOT        =      F    write LOCPOT, total local potential
   LVHAR        =      F    write LOCPOT, Hartree potential only
   LELF         =      F    write electronic localiz. function (ELF)
   LORBIT       =     10    0 simple, 1 ext, 2 COOP (PROOUT), +10 PAW based schemes


 Dipole corrections
   LMONO  =      F    monopole corrections only (constant potential shift)
   LDIPOL =      F    correct potential (dipole corrections)
   IDIPOL =      0    1-x, 2-y, 3-z, 4-all directions 
   EPSILON=  1.0000000 bulk dielectric constant

 Exchange correlation treatment:
   GGA     =    --    GGA type
   LEXCH   =     8    internal setting for exchange type
   VOSKOWN=      0    Vosko Wilk Nusair interpolation
   EXXOEP  =     0    0=HF, 1=EXX-LHF (local Hartree Fock) 2=EXX OEP
   LHFCALC =     T    Hartree Fock is set to
   LSYMGRAD=     F    symmetrize gradient (conserves proper symmetry)
   PRECFOCK=normal    Normal, Fast or Accurate (Low or Medium for compatibility)
   LRHFCALC=     F    long range Hartree Fock
   LRSCOR  =     F    long range correlation only (use DFT for short range part)
   LTHOMAS =     F    Thomas Fermi screening in HF
   LMODELHF=     F    short range full HF, long range fraction AEXX
   ENCUT4O =  -1.0   cutoff for four orbital integrals eV
   LMAXFOCK=     4    L truncation for augmentation on plane wave grid
   LMAXFOCKAE=  -1    L truncation for all-electron charge restoration on plane wave grid
   NMAXFOCKAE=   1    number of basis functions for all-electron charge restoration
   LFOCKAEDFT=     F  apply the AE augmentation even for DFT
   NKREDX  =     1    reduce k-point grid by
   NKREDY  =     1    reduce k-point grid by
   NKREDZ  =     1    reduce k-point grid by
   SHIFTRED=     F    shift reduced grid of Gamma
   HFKIDENT=     F    idential grid for each k-point
   ODDONLY =     F    use only odd q-grid points
   EVENONLY=     F    use only even q-grid points
   HFALPHA =   -1.0000 decay constant for conv. correction
   MCALPHA =    0.0000 extent of test-charge in conv. correction in multipole expansion
   AEXX    =    0.2500 exact exchange contribution
   HFSCREEN=    0.2000 screening length (either q_TF or 0.3 A-1)
   HFSCREENC=   0.2000 screening length for correlation (either q_TF or 0.3 A-1)
   HFRCUT  =    0.0000 spherical cutoff for potential kernel
   ALDAX   =    0.7500 LDA exchange part
   AGGAX   =    0.7500 GGA exchange part
   ALDAC   =    1.0000 LDA correlation
   AGGAC   =    1.0000 GGA correlation
   ENCUTFOCK=  -1.0 apply spherical cutoff to Coloumb kernel
   NBANDSGWLOW=     1    first orbital included in HF term
   NBLOCK_FOCK=    64    blocking factor in FOCK_ACC
 Linear response parameters
   LEPSILON=     F    determine dielectric tensor
   LRPA    =     F    only Hartree local field effects (RPA)
   LNABLA  =     F    use nabla operator in PAW spheres
   LVEL    =     F    velocity operator in full k-point grid
   LINTERFAST=   F  fast interpolation
   KINTER  =     0    interpolate to denser k-point grid
   CSHIFT  =0.1000    complex shift for real part using Kramers Kronig
   OMEGAMAX=  -1.0    maximum frequency
   DEG_THRESHOLD= 0.2000000E-02 threshold for treating states as degnerate
   RTIME   =   -0.100 relaxation time in fs
  (WPLASMAI=    0.000 imaginary part of plasma frequency in eV, 0.658/RTIME)
   DFIELD  = 0.0000000 0.0000000 0.0000000 field for delta impulse in time
 
 Orbital magnetization related:
   ORBITALMAG=     F  switch on orbital magnetization
   LCHIMAG   =     F  perturbation theory with respect to B field
   DQ        =  0.001000  dq finite difference perturbation B field
   LLRAUG    =     F  two centre corrections for induced B field



--------------------------------------------------------------------------------------------------------


 Static calculation
 charge density and potential remain constant during run
 non-spin polarized calculation
 Conjugate gradient for all bands (Freysoldt, et al. PRB 79, 241103 (2009))
 preconditioned conjugated gradient   charged. constant during bandupdate  
 perform sub-space diagonalisation
    before iterative eigenvector-optimisation
 no mixing
 using additional bands           32
 real space projection scheme for non local part
 use partial core corrections
 calculate Harris-corrections to forces 
   (improved forces if not selfconsistent)
 use gradient corrections 
 WARNING: stress and forces are not correct
  (second derivative of E(xc) not defined)
 use of overlap-Matrix (Vanderbilt PP)
 Fermi weights with tetrahedron method with Bloechl corrections


--------------------------------------------------------------------------------------------------------


  energy-cutoff  :      450.00
  volume of cell :      958.84
      direct lattice vectors                 reciprocal lattice vectors
     8.675100327  0.000000000  0.000000000     0.115272442  0.000000000  0.000000000
     0.000000000  8.824000359  0.000000000     0.000000000  0.113327285  0.000000000
     0.000000000  0.000000000 12.525799751     0.000000000  0.000000000  0.079835222

  length of vectors
     8.675100327  8.824000359 12.525799751     0.115272442  0.113327285  0.079835222


 
 old parameters found on file WAVECAR:
  energy-cutoff  :      450.00
  volume of cell :      958.84
      direct lattice vectors                 reciprocal lattice vectors
     8.675100327  0.000000000  0.000000000     0.115272442  0.000000000  0.000000000
     0.000000000  8.824000359  0.000000000     0.000000000  0.113327285  0.000000000
     0.000000000  0.000000000 12.525799751     0.000000000  0.000000000  0.079835222

  length of vectors

 
 k-points in units of 2pi/SCALE and weight: KPT-Resolved Value to Generate K-Mesh: 0
   0.00000000  0.00000000  0.00000000       0.056
   0.03842415  0.00000000  0.00000000       0.111
   0.00000000  0.03777576  0.00000000       0.111
   0.03842415  0.03777576  0.00000000       0.222
   0.00000000  0.00000000  0.03991761       0.056
   0.03842415  0.00000000  0.03991761       0.111
   0.00000000  0.03777576  0.03991761       0.111
   0.03842415  0.03777576  0.03991761       0.222
 
 k-points in reciprocal lattice and weights: KPT-Resolved Value to Generate K-Mesh: 0
   0.00000000  0.00000000  0.00000000       0.056
   0.33333333  0.00000000  0.00000000       0.111
   0.00000000  0.33333333  0.00000000       0.111
   0.33333333  0.33333333  0.00000000       0.222
   0.00000000  0.00000000  0.50000000       0.056
   0.33333333  0.00000000  0.50000000       0.111
   0.00000000  0.33333333  0.50000000       0.111
   0.33333333  0.33333333  0.50000000       0.222
 
 position of ions in fractional coordinates (direct lattice) 
   0.19227051  0.30587406  0.54028163
   0.80772943  0.69412589  0.45971837
   0.69227057  0.19412594  0.45971837
   0.30772949  0.80587411  0.54028163
   0.80772943  0.69412589  0.04028164
   0.19227051  0.30587406  0.95971837
   0.30772949  0.80587411  0.95971837
   0.69227057  0.19412594  0.04028164
   0.91757977  0.00007447  0.75000002
   0.08242017  0.99992553  0.25000000
   0.41757982  0.49992553  0.25000000
   0.58242018  0.50007447  0.75000002
   0.00000000  0.00000000  0.50000000
   0.50000000  0.50000000  0.50000000
   0.00000000  0.00000000  0.00000000
   0.50000000  0.50000000  0.00000000
   0.97805666  0.42438825  0.25000000
   0.02194334  0.57561175  0.75000002
   0.47805666  0.07561174  0.75000002
   0.52194334  0.92438825  0.25000000
 
 position of ions in cartesian coordinates  (Angst):
   1.66796599  2.69903280  6.76745953
   7.00713386  6.12496708  5.75834022
   6.00551663  1.71296738  5.75834022
   2.66958417  7.11103345  6.76745953
   7.00713386  6.12496708  0.50455974
   1.66796599  2.69903280 12.02124010
   2.66958417  7.11103345 12.02124010
   6.00551663  1.71296738  0.50455974
   7.96009654  0.00065714  9.39435005
   0.71500325  8.82334327  3.13144994
   3.62254686  4.41134304  3.13144994
   5.05255347  4.41265732  9.39435005
   0.00000000  0.00000000  6.26289988
   4.33755016  4.41200018  6.26289988
   0.00000000  0.00000000  0.00000000
   4.33755016  4.41200018  0.00000000
   8.48473964  3.74480210  3.13144994
   0.19036067  5.07919826  9.39435005
   4.14718948  0.66719802  9.39435005
   4.52791085  8.15680228  3.13144994
 


--------------------------------------------------------------------------------------------------------


 k-point  1 :   0.0000 0.0000 0.0000  plane waves:   20787
 k-point  2 :   0.3333 0.0000 0.0000  plane waves:   20798
 k-point  3 :   0.0000 0.3333 0.0000  plane waves:   20746
 k-point  4 :   0.3333 0.3333 0.0000  plane waves:   20783
 k-point  5 :   0.0000 0.0000 0.5000  plane waves:   20716
 k-point  6 :   0.3333 0.0000 0.5000  plane waves:   20812
 k-point  7 :   0.0000 0.3333 0.5000  plane waves:   20760
 k-point  8 :   0.3333 0.3333 0.5000  plane waves:   20782

 maximum and minimum number of plane-waves per node :     20812    20716

 maximum number of plane-waves:     20812
 maximum index in each direction: 
   IXMAX=   15   IYMAX=   15   IZMAX=   21
   IXMIN=  -15   IYMIN=  -15   IZMIN=  -22


 serial   3D FFT for wavefunctions
 parallel 3D FFT for charge:
    minimum data exchange during FFTs selected (reduces bandwidth)

 
 Radii for the augmentation spheres in the non-local exchange
 for species   1 augmentation radius   1.484 (default was   1.188)
       energy cutoff for augmentation   1800.0
 for species   2 augmentation radius   1.443 (default was   1.154)
       energy cutoff for augmentation   1800.0
 for species   3 augmentation radius   1.414 (default was   1.131)
       energy cutoff for augmentation   1800.0
 Maximum index for augmentation-charges in exchange         2310
  SETUP_FOCK is finished

 total amount of memory used by VASP MPI-rank0    64412. kBytes
=======================================================================

   base      :      30000. kBytes
   nonlr-proj:      15815. kBytes
   fftplans  :       2581. kBytes
   grid      :       7357. kBytes
   one-center:        311. kBytes
   HF        :        194. kBytes
   wavefun   :       8154. kBytes
 
     INWAV:  cpu time    1.9247: real time    1.9455
 initial charge density was supplied:
 number of electron     175.9999998 magnetization 
 keeping initial charge density in first step


--------------------------------------------------------------------------------------------------------


 Maximum index for non-local projection operator         2576
 BZINTS: Fermi energy:  1.232282;176.000000 electrons
         Band energy:***********;  BLOECHL correction:  0.000000
 Maximum index for augmentation-charges         2033 (set IRDMAX)


--------------------------------------------------------------------------------------------------------


 First call to EWALD:  gamma=   0.180
 Maximum number of real-space cells 3x 3x 2
 Maximum number of reciprocal cells 2x 3x 3

    FEWALD:  cpu time    0.0040: real time    0.0067

 ----------------------------------------------------------------------------- 
|                                                                             |
|           W    W    AA    RRRRR   N    N  II  N    N   GGGG   !!!           |
|           W    W   A  A   R    R  NN   N  II  NN   N  G    G  !!!           |
|           W    W  A    A  R    R  N N  N  II  N N  N  G       !!!           |
|           W WW W  AAAAAA  RRRRR   N  N N  II  N  N N  G  GGG   !            |
|           WW  WW  A    A  R   R   N   NN  II  N   NN  G    G                |
|           W    W  A    A  R    R  N    N  II  N    N   GGGG   !!!           |
|                                                                             |
|      ALGO=A and IALGO=5X tend to fail with the tetrahedron method           |
|      (e.g. Bloechls method ISMEAR=-5 is not variational)                    |
|      please switch to IMSEAR=0-n, except for DOS calculations               |
|      For DOS calculations use IALGO=53 after preconverging with ISMEAR>=0   |
|          I HOPE YOU KNOW, WHAT YOU ARE  DOING                               |
|                                                                             |
 ----------------------------------------------------------------------------- 



--------------------------------------- Iteration      1(   1)  ---------------------------------------


    POTLOK:  cpu time    0.1460: real time    0.1823
    SETDIJ:  cpu time    0.2330: real time    0.2401
    TRIAL :  cpu time  352.1285: real time  353.7347
 BZINTS: Fermi energy:  1.232286;176.000000 electrons
         Band energy:***********;  BLOECHL correction:  0.000000
 BZINTS: Fermi energy:  1.232285;176.000000 electrons
         Band energy:***********;  BLOECHL correction:  0.000000
    CORREC:  cpu time  350.9287: real time  352.2505
    --------------------------------------------
      LOOP:  cpu time  703.4381: real time  706.4149

 eigenvalue-minimisations  :     0
 total energy-change (2. order) :-0.6746417E+02  (-0.9728877E-06)
 number of electron     175.9999998 magnetization 
 augmentation part      175.9999998 magnetization 

 Free energy of the ion-electron system (eV)
  ---------------------------------------------------
  alpha Z        PSCENC =       274.57589780
  Ewald energy   TEWEN  =     -8733.92648156
  -Hartree energ DENC   =     -3543.20239058
  -exchange      EXHF   =       317.38537971
  -V(xc)+E(xc)   XCENC  =        13.63338186
  PAW double counting   =     15592.28886958   -15232.74816436
  entropy T*S    EENTRO =         0.00000000
  eigenvalues    EBANDS =     -1397.80728675
  atomic energy  EATOM  =     12642.33662683
  ---------------------------------------------------
  free energy    TOTEN  =       -67.46416747 eV

  energy without entropy =      -67.46416747  energy(sigma->0) =      -67.46416747
  exchange ACFDT corr.  =         0.00000000  see jH, gK, PRB 81, 115126


--------------------------------------------------------------------------------------------------------




--------------------------------------- Iteration      1(   2)  ---------------------------------------


    TRIAL :  cpu time  354.2351: real time  355.5938
 BZINTS: Fermi energy:  1.232039;176.000000 electrons
         Band energy:***********;  BLOECHL correction:  0.000000
 BZINTS: Fermi energy:  1.231897;176.000000 electrons
         Band energy:***********;  BLOECHL correction:  0.000000
    CORREC:  cpu time  354.5951: real time  355.4185
    EDDIAG:  cpu time  355.3950: real time  356.2186
    --------------------------------------------
      LOOP:  cpu time 1064.2302: real time 1067.2436

 eigenvalue-minimisations  :     0
 total energy-change (2. order) :-0.9728810E-06  (-0.1898498E-06)
 number of electron     175.9999998 magnetization 
 augmentation part      175.9999998 magnetization 

 Free energy of the ion-electron system (eV)
  ---------------------------------------------------
  alpha Z        PSCENC =       274.57589780
  Ewald energy   TEWEN  =     -8733.92648156
  -Hartree energ DENC   =     -3543.20239058
  -exchange      EXHF   =       317.38600011
  -V(xc)+E(xc)   XCENC  =        13.63338186
  PAW double counting   =     15592.28886958   -15232.74816436
  entropy T*S    EENTRO =         0.00000000
  eigenvalues    EBANDS =     -1397.80760983
  atomic energy  EATOM  =     12642.33662683
  ---------------------------------------------------
  free energy    TOTEN  =       -67.46416844 eV

  energy without entropy =      -67.46416844  energy(sigma->0) =      -67.46416844
  exchange ACFDT corr.  =         0.00000000  see jH, gK, PRB 81, 115126


--------------------------------------------------------------------------------------------------------


  average scaling for gradient   0.8702


 average (electrostatic) potential at core
  the test charge radii are     1.1875  1.1541  1.1312
  (the norm of the test charge is              1.0000)
       1 -89.6025       2 -89.6025       3 -89.6025       4 -89.6025       5 -89.6025
       6 -89.6025       7 -89.6025       8 -89.6025       9 -89.5768      10 -89.5768
      11 -89.5768      12 -89.5768      13 -89.7922      14 -89.7923      15 -89.7922
      16 -89.7923      17 -45.5508      18 -45.5508      19 -45.5508      20 -45.5508
 
 
 
 E-fermi :   1.2319     XC(G=0):  -6.3178     alpha+bet : -7.7161


 k-point     1 :       0.0000    0.0000    0.0000
  band No.  band energies     occupation 
      1     -21.1932      2.00000
      2     -21.1925      2.00000
      3     -21.1913      2.00000
      4     -21.1909      2.00000
      5     -17.0774      2.00000
      6     -17.0749      2.00000
      7     -17.0746      2.00000
      8     -17.0719      2.00000
      9     -17.0676      2.00000
     10     -17.0621      2.00000
     11     -17.0588      2.00000
     12     -17.0588      2.00000
     13     -17.0192      2.00000
     14     -17.0189      2.00000
     15     -17.0185      2.00000
     16     -17.0182      2.00000
     17     -17.0141      2.00000
     18     -17.0137      2.00000
     19     -17.0135      2.00000
     20     -17.0131      2.00000
     21     -17.0090      2.00000
     22     -17.0088      2.00000
     23     -17.0081      2.00000
     24     -17.0079      2.00000
     25     -12.0010      2.00000
     26     -11.8107      2.00000
     27     -11.5255      2.00000
     28     -11.4951      2.00000
     29     -11.4913      2.00000
     30     -11.4779      2.00000
     31     -11.4728      2.00000
     32     -11.4589      2.00000
     33     -11.4538      2.00000
     34     -11.2713      2.00000
     35     -11.2600      2.00000
     36     -11.2599      2.00000
     37      -7.6851      2.00000
     38      -7.1889      2.00000
     39      -7.0686      2.00000
     40      -7.0647      2.00000
     41      -7.0571      2.00000
     42      -7.0568      2.00000
     43      -7.0508      2.00000
     44      -7.0480      2.00000
     45      -7.0450      2.00000
     46      -7.0374      2.00000
     47      -7.0226      2.00000
     48      -7.0083      2.00000
     49      -7.0026      2.00000
     50      -6.9752      2.00000
     51      -6.5897      2.00000
     52      -6.0481      2.00000
     53      -2.4069      2.00000
     54      -2.4066      2.00000
     55      -2.3130      2.00000
     56      -2.2618      2.00000
     57      -2.1387      2.00000
     58      -2.0731      2.00000
     59      -1.2933      2.00000
     60      -1.0433      2.00000
     61      -1.0234      2.00000
     62      -0.9933      2.00000
     63      -0.9914      2.00000
     64      -0.9108      2.00000
     65      -0.6568      2.00000
     66      -0.5054      2.00000
     67      -0.4804      2.00000
     68      -0.4517      2.00000
     69      -0.3858      2.00000
     70      -0.3752      2.00000
     71      -0.3723      2.00000
     72      -0.3487      2.00000
     73      -0.2746      2.00000
     74      -0.2585      2.00000
     75      -0.2440      2.00000
     76      -0.2347      2.00000
     77      -0.2240      2.00000
     78      -0.1476      2.00000
     79      -0.0346      2.00000
     80      -0.0202      2.00000
     81       0.0075      2.00000
     82       0.0497      2.00000
     83       0.0560      2.00000
     84       0.0751      2.00000
     85       0.2928      2.00000
     86       0.3654      2.00000
     87       0.7348      2.00000
     88       1.2163      2.00000
     89       3.6094      0.00000
     90       3.6163      0.00000
     91       3.7165      0.00000
     92       3.9259      0.00000
     93       4.0753      0.00000
     94       4.2647      0.00000
     95       5.8209      0.00000
     96       6.5360      0.00000
     97       6.5496      0.00000
     98       6.7396      0.00000
     99       6.7725      0.00000
    100       6.8777      0.00000
    101       6.8797      0.00000
    102       6.9077      0.00000
    103       7.0223      0.00000
    104       7.0402      0.00000
    105       7.1167      0.00000
    106       7.1305      0.00000
    107       7.1725      0.00000
    108       7.3711      0.00000
    109       7.4308      0.00000
    110       7.4451      0.00000
    111       7.5905      0.00000
    112       7.6084      0.00000
    113       7.8723      0.00000
    114       7.9323      0.00000
    115       8.0269      0.00000
    116       8.1668      0.00000
    117       8.2258      0.00000
    118       8.2823      0.00000
    119       8.4043      0.00000
    120       8.6256      0.00000

 k-point     2 :       0.3333    0.0000    0.0000
  band No.  band energies     occupation 
      1     -21.1928      2.00000
      2     -21.1923      2.00000
      3     -21.1916      2.00000
      4     -21.1912      2.00000
      5     -17.0761      2.00000
      6     -17.0737      2.00000
      7     -17.0707      2.00000
      8     -17.0704      2.00000
      9     -17.0664      2.00000
     10     -17.0634      2.00000
     11     -17.0627      2.00000
     12     -17.0626      2.00000
     13     -17.0191      2.00000
     14     -17.0187      2.00000
     15     -17.0187      2.00000
     16     -17.0184      2.00000
     17     -17.0140      2.00000
     18     -17.0138      2.00000
     19     -17.0134      2.00000
     20     -17.0132      2.00000
     21     -17.0088      2.00000
     22     -17.0086      2.00000
     23     -17.0084      2.00000
     24     -17.0082      2.00000
     25     -11.9277      2.00000
     26     -11.7360      2.00000
     27     -11.7354      2.00000
     28     -11.5678      2.00000
     29     -11.4801      2.00000
     30     -11.4751      2.00000
     31     -11.4267      2.00000
     32     -11.4100      2.00000
     33     -11.3497      2.00000
     34     -11.3207      2.00000
     35     -11.3103      2.00000
     36     -11.2751      2.00000
     37      -7.4458      2.00000
     38      -7.1043      2.00000
     39      -7.0678      2.00000
     40      -7.0615      2.00000
     41      -7.0521      2.00000
     42      -7.0518      2.00000
     43      -7.0488      2.00000
     44      -7.0441      2.00000
     45      -7.0309      2.00000
     46      -7.0241      2.00000
     47      -7.0209      2.00000
     48      -7.0188      2.00000
     49      -7.0108      2.00000
     50      -6.8684      2.00000
     51      -6.8446      2.00000
     52      -6.3668      2.00000
     53      -2.3131      2.00000
     54      -2.1689      2.00000
     55      -2.0431      2.00000
     56      -1.9062      2.00000
     57      -1.8721      2.00000
     58      -1.7613      2.00000
     59      -1.3890      2.00000
     60      -1.2161      2.00000
     61      -1.1025      2.00000
     62      -1.0941      2.00000
     63      -1.0779      2.00000
     64      -0.9628      2.00000
     65      -0.8919      2.00000
     66      -0.7712      2.00000
     67      -0.6484      2.00000
     68      -0.5978      2.00000
     69      -0.4298      2.00000
     70      -0.3918      2.00000
     71      -0.3628      2.00000
     72      -0.3473      2.00000
     73      -0.3265      2.00000
     74      -0.3102      2.00000
     75      -0.2443      2.00000
     76      -0.2367      2.00000
     77      -0.1680      2.00000
     78      -0.1194      2.00000
     79      -0.1151      2.00000
     80      -0.0711      2.00000
     81      -0.0384      2.00000
     82      -0.0124      2.00000
     83       0.0667      2.00000
     84       0.0983      2.00000
     85       0.2080      2.00000
     86       0.3048      2.00000
     87       0.4229      2.00000
     88       0.7079      2.00000
     89       3.7568      0.00000
     90       4.0503      0.00000
     91       4.4271      0.00000
     92       4.5294      0.00000
     93       4.7300      0.00000
     94       4.8350      0.00000
     95       5.7891      0.00000
     96       5.9636      0.00000
     97       6.0928      0.00000
     98       6.1235      0.00000
     99       6.4768      0.00000
    100       6.6648      0.00000
    101       6.7214      0.00000
    102       6.9131      0.00000
    103       7.0130      0.00000
    104       7.1857      0.00000
    105       7.2908      0.00000
    106       7.2979      0.00000
    107       7.3160      0.00000
    108       7.4084      0.00000
    109       7.4897      0.00000
    110       7.5137      0.00000
    111       7.5358      0.00000
    112       7.5794      0.00000
    113       7.7434      0.00000
    114       7.9636      0.00000
    115       7.9776      0.00000
    116       8.0409      0.00000
    117       8.0595      0.00000
    118       8.0793      0.00000
    119       8.1891      0.00000
    120       8.3657      0.00000

 k-point     3 :       0.0000    0.3333    0.0000
  band No.  band energies     occupation 
      1     -21.1927      2.00000
      2     -21.1921      2.00000
      3     -21.1918      2.00000
      4     -21.1913      2.00000
      5     -17.0761      2.00000
      6     -17.0737      2.00000
      7     -17.0707      2.00000
      8     -17.0704      2.00000
      9     -17.0664      2.00000
     10     -17.0634      2.00000
     11     -17.0627      2.00000
     12     -17.0626      2.00000
     13     -17.0191      2.00000
     14     -17.0187      2.00000
     15     -17.0187      2.00000
     16     -17.0184      2.00000
     17     -17.0140      2.00000
     18     -17.0138      2.00000
     19     -17.0134      2.00000
     20     -17.0132      2.00000
     21     -17.0088      2.00000
     22     -17.0086      2.00000
     23     -17.0084      2.00000
     24     -17.0082      2.00000
     25     -11.9275      2.00000
     26     -11.7348      2.00000
     27     -11.7327      2.00000
     28     -11.5583      2.00000
     29     -11.4791      2.00000
     30     -11.4699      2.00000
     31     -11.4381      2.00000
     32     -11.4207      2.00000
     33     -11.3388      2.00000
     34     -11.3277      2.00000
     35     -11.3140      2.00000
     36     -11.2726      2.00000
     37      -7.4526      2.00000
     38      -7.1026      2.00000
     39      -7.0989      2.00000
     40      -7.0722      2.00000
     41      -7.0524      2.00000
     42      -7.0516      2.00000
     43      -7.0427      2.00000
     44      -7.0366      2.00000
     45      -7.0281      2.00000
     46      -7.0274      2.00000
     47      -7.0247      2.00000
     48      -7.0155      2.00000
     49      -7.0079      2.00000
     50      -6.8470      2.00000
     51      -6.8388      2.00000
     52      -6.3634      2.00000
     53      -2.3108      2.00000
     54      -2.1719      2.00000
     55      -2.0883      2.00000
     56      -1.9162      2.00000
     57      -1.8347      2.00000
     58      -1.7389      2.00000
     59      -1.2761      2.00000
     60      -1.2440      2.00000
     61      -1.0949      2.00000
     62      -1.0581      2.00000
     63      -1.0532      2.00000
     64      -0.9877      2.00000
     65      -0.9306      2.00000
     66      -0.7926      2.00000
     67      -0.6810      2.00000
     68      -0.6204      2.00000
     69      -0.4606      2.00000
     70      -0.3931      2.00000
     71      -0.3777      2.00000
     72      -0.3226      2.00000
     73      -0.3113      2.00000
     74      -0.2968      2.00000
     75      -0.2511      2.00000
     76      -0.2109      2.00000
     77      -0.2052      2.00000
     78      -0.1319      2.00000
     79      -0.1291      2.00000
     80      -0.1044      2.00000
     81      -0.0654      2.00000
     82      -0.0316      2.00000
     83       0.0238      2.00000
     84       0.0618      2.00000
     85       0.2975      2.00000
     86       0.3051      2.00000
     87       0.4476      2.00000
     88       0.7556      2.00000
     89       3.7781      0.00000
     90       4.0793      0.00000
     91       4.4436      0.00000
     92       4.5604      0.00000
     93       4.7249      0.00000
     94       4.8687      0.00000
     95       5.8917      0.00000
     96       6.0029      0.00000
     97       6.0208      0.00000
     98       6.1827      0.00000
     99       6.5371      0.00000
    100       6.6044      0.00000
    101       6.7798      0.00000
    102       6.8729      0.00000
    103       7.0718      0.00000
    104       7.0822      0.00000
    105       7.1083      0.00000
    106       7.2191      0.00000
    107       7.2361      0.00000
    108       7.4035      0.00000
    109       7.4300      0.00000
    110       7.5403      0.00000
    111       7.5955      0.00000
    112       7.6542      0.00000
    113       7.6980      0.00000
    114       7.8910      0.00000
    115       7.9220      0.00000
    116       7.9434      0.00000
    117       7.9966      0.00000
    118       8.1033      0.00000
    119       8.1473      0.00000
    120       8.3702      0.00000

 k-point     4 :       0.3333    0.3333    0.0000
  band No.  band energies     occupation 
      1     -21.1925      2.00000
      2     -21.1921      2.00000
      3     -21.1918      2.00000
      4     -21.1915      2.00000
      5     -17.0769      2.00000
      6     -17.0753      2.00000
      7     -17.0710      2.00000
      8     -17.0680      2.00000
      9     -17.0673      2.00000
     10     -17.0637      2.00000
     11     -17.0632      2.00000
     12     -17.0609      2.00000
     13     -17.0190      2.00000
     14     -17.0188      2.00000
     15     -17.0186      2.00000
     16     -17.0184      2.00000
     17     -17.0139      2.00000
     18     -17.0138      2.00000
     19     -17.0134      2.00000
     20     -17.0133      2.00000
     21     -17.0087      2.00000
     22     -17.0085      2.00000
     23     -17.0085      2.00000
     24     -17.0083      2.00000
     25     -11.8685      2.00000
     26     -11.7566      2.00000
     27     -11.6621      2.00000
     28     -11.5137      2.00000
     29     -11.5094      2.00000
     30     -11.4929      2.00000
     31     -11.4830      2.00000
     32     -11.4629      2.00000
     33     -11.4158      2.00000
     34     -11.3775      2.00000
     35     -11.2676      2.00000
     36     -11.2409      2.00000
     37      -7.3101      2.00000
     38      -7.1244      2.00000
     39      -7.0770      2.00000
     40      -7.0583      2.00000
     41      -7.0556      2.00000
     42      -7.0456      2.00000
     43      -7.0350      2.00000
     44      -7.0334      2.00000
     45      -7.0273      2.00000
     46      -7.0250      2.00000
     47      -7.0210      2.00000
     48      -7.0178      2.00000
     49      -7.0097      2.00000
     50      -6.9360      2.00000
     51      -6.7077      2.00000
     52      -6.4678      2.00000
     53      -2.2972      2.00000
     54      -2.2631      2.00000
     55      -2.2242      2.00000
     56      -2.0804      2.00000
     57      -1.8785      2.00000
     58      -1.6834      2.00000
     59      -1.3475      2.00000
     60      -1.2102      2.00000
     61      -1.1847      2.00000
     62      -1.1584      2.00000
     63      -1.0630      2.00000
     64      -0.7996      2.00000
     65      -0.7867      2.00000
     66      -0.6921      2.00000
     67      -0.5951      2.00000
     68      -0.4786      2.00000
     69      -0.4343      2.00000
     70      -0.3886      2.00000
     71      -0.3820      2.00000
     72      -0.3702      2.00000
     73      -0.3378      2.00000
     74      -0.2598      2.00000
     75      -0.2265      2.00000
     76      -0.2163      2.00000
     77      -0.2004      2.00000
     78      -0.1887      2.00000
     79      -0.1542      2.00000
     80      -0.1244      2.00000
     81      -0.1117      2.00000
     82      -0.0445      2.00000
     83      -0.0170      2.00000
     84       0.0335      2.00000
     85       0.2474      2.00000
     86       0.3734      2.00000
     87       0.5158      2.00000
     88       0.7513      2.00000
     89       3.8314      0.00000
     90       3.8947      0.00000
     91       3.9825      0.00000
     92       4.2393      0.00000
     93       4.7014      0.00000
     94       5.0014      0.00000
     95       5.7293      0.00000
     96       6.0274      0.00000
     97       6.3971      0.00000
     98       6.6445      0.00000
     99       6.7750      0.00000
    100       6.7942      0.00000
    101       6.9627      0.00000
    102       6.9747      0.00000
    103       7.1220      0.00000
    104       7.2598      0.00000
    105       7.2702      0.00000
    106       7.2790      0.00000
    107       7.3784      0.00000
    108       7.4636      0.00000
    109       7.5041      0.00000
    110       7.5283      0.00000
    111       7.6358      0.00000
    112       7.7795      0.00000
    113       7.8675      0.00000
    114       7.9382      0.00000
    115       7.9439      0.00000
    116       8.0064      0.00000
    117       8.1102      0.00000
    118       8.2311      0.00000
    119       8.3802      0.00000
    120       8.3927      0.00000

 k-point     5 :       0.0000    0.0000    0.5000
  band No.  band energies     occupation 
      1     -21.1929      2.00000
      2     -21.1929      2.00000
      3     -21.1911      2.00000
      4     -21.1911      2.00000
      5     -17.0747      2.00000
      6     -17.0746      2.00000
      7     -17.0725      2.00000
      8     -17.0725      2.00000
      9     -17.0671      2.00000
     10     -17.0671      2.00000
     11     -17.0588      2.00000
     12     -17.0588      2.00000
     13     -17.0191      2.00000
     14     -17.0191      2.00000
     15     -17.0184      2.00000
     16     -17.0183      2.00000
     17     -17.0138      2.00000
     18     -17.0138      2.00000
     19     -17.0134      2.00000
     20     -17.0134      2.00000
     21     -17.0089      2.00000
     22     -17.0089      2.00000
     23     -17.0080      2.00000
     24     -17.0080      2.00000
     25     -11.9256      2.00000
     26     -11.9256      2.00000
     27     -11.4993      2.00000
     28     -11.4993      2.00000
     29     -11.4820      2.00000
     30     -11.4820      2.00000
     31     -11.4670      2.00000
     32     -11.4669      2.00000
     33     -11.3510      2.00000
     34     -11.3510      2.00000
     35     -11.2650      2.00000
     36     -11.2650      2.00000
     37      -7.4349      2.00000
     38      -7.4349      2.00000
     39      -7.0684      2.00000
     40      -7.0684      2.00000
     41      -7.0632      2.00000
     42      -7.0632      2.00000
     43      -7.0479      2.00000
     44      -7.0479      2.00000
     45      -7.0226      2.00000
     46      -7.0226      2.00000
     47      -7.0169      2.00000
     48      -7.0169      2.00000
     49      -7.0146      2.00000
     50      -7.0146      2.00000
     51      -6.3601      2.00000
     52      -6.3601      2.00000
     53      -2.3366      2.00000
     54      -2.3366      2.00000
     55      -2.2639      2.00000
     56      -2.2638      2.00000
     57      -1.5928      2.00000
     58      -1.5928      2.00000
     59      -1.3193      2.00000
     60      -1.3193      2.00000
     61      -1.1610      2.00000
     62      -1.1610      2.00000
     63      -0.8987      2.00000
     64      -0.8987      2.00000
     65      -0.8521      2.00000
     66      -0.8521      2.00000
     67      -0.5538      2.00000
     68      -0.5538      2.00000
     69      -0.3965      2.00000
     70      -0.3965      2.00000
     71      -0.2957      2.00000
     72      -0.2957      2.00000
     73      -0.2599      2.00000
     74      -0.2599      2.00000
     75      -0.2519      2.00000
     76      -0.2519      2.00000
     77      -0.1152      2.00000
     78      -0.1152      2.00000
     79      -0.0729      2.00000
     80      -0.0729      2.00000
     81      -0.0230      2.00000
     82      -0.0230      2.00000
     83       0.0213      2.00000
     84       0.0213      2.00000
     85       0.2333      2.00000
     86       0.2333      2.00000
     87       0.8330      2.00000
     88       0.8331      2.00000
     89       3.7947      0.00000
     90       3.7947      0.00000
     91       3.8924      0.00000
     92       3.8924      0.00000
     93       5.1546      0.00000
     94       5.1546      0.00000
     95       5.6263      0.00000
     96       5.6263      0.00000
     97       6.4057      0.00000
     98       6.4057      0.00000
     99       6.7373      0.00000
    100       6.7379      0.00000
    101       6.8378      0.00000
    102       6.8380      0.00000
    103       7.0150      0.00000
    104       7.0150      0.00000
    105       7.0587      0.00000
    106       7.0590      0.00000
    107       7.2916      0.00000
    108       7.2916      0.00000
    109       7.4146      0.00000
    110       7.4146      0.00000
    111       7.5424      0.00000
    112       7.5424      0.00000
    113       7.6424      0.00000
    114       7.6428      0.00000
    115       7.6915      0.00000
    116       7.6916      0.00000
    117       7.9649      0.00000
    118       7.9667      0.00000
    119       8.4537      0.00000
    120       8.4907      0.00000

 k-point     6 :       0.3333    0.0000    0.5000
  band No.  band energies     occupation 
      1     -21.1925      2.00000
      2     -21.1925      2.00000
      3     -21.1914      2.00000
      4     -21.1914      2.00000
      5     -17.0712      2.00000
      6     -17.0712      2.00000
      7     -17.0710      2.00000
      8     -17.0709      2.00000
      9     -17.0682      2.00000
     10     -17.0682      2.00000
     11     -17.0627      2.00000
     12     -17.0627      2.00000
     13     -17.0189      2.00000
     14     -17.0189      2.00000
     15     -17.0185      2.00000
     16     -17.0185      2.00000
     17     -17.0137      2.00000
     18     -17.0137      2.00000
     19     -17.0135      2.00000
     20     -17.0135      2.00000
     21     -17.0087      2.00000
     22     -17.0087      2.00000
     23     -17.0083      2.00000
     24     -17.0083      2.00000
     25     -11.8531      2.00000
     26     -11.8531      2.00000
     27     -11.6739      2.00000
     28     -11.6739      2.00000
     29     -11.4233      2.00000
     30     -11.4233      2.00000
     31     -11.3873      2.00000
     32     -11.3873      2.00000
     33     -11.3552      2.00000
     34     -11.3552      2.00000
     35     -11.3144      2.00000
     36     -11.3143      2.00000
     37      -7.2244      2.00000
     38      -7.2244      2.00000
     39      -7.0657      2.00000
     40      -7.0657      2.00000
     41      -7.0550      2.00000
     42      -7.0550      2.00000
     43      -7.0441      2.00000
     44      -7.0441      2.00000
     45      -7.0190      2.00000
     46      -7.0190      2.00000
     47      -7.0113      2.00000
     48      -7.0113      2.00000
     49      -7.0014      2.00000
     50      -7.0014      2.00000
     51      -6.6602      2.00000
     52      -6.6602      2.00000
     53      -1.9717      2.00000
     54      -1.9717      2.00000
     55      -1.8887      2.00000
     56      -1.8886      2.00000
     57      -1.5674      2.00000
     58      -1.5674      2.00000
     59      -1.4219      2.00000
     60      -1.4219      2.00000
     61      -1.2515      2.00000
     62      -1.2515      2.00000
     63      -1.1298      2.00000
     64      -1.1298      2.00000
     65      -0.7545      2.00000
     66      -0.7545      2.00000
     67      -0.6940      2.00000
     68      -0.6940      2.00000
     69      -0.5184      2.00000
     70      -0.5184      2.00000
     71      -0.4296      2.00000
     72      -0.4296      2.00000
     73      -0.3353      2.00000
     74      -0.3353      2.00000
     75      -0.3084      2.00000
     76      -0.3083      2.00000
     77      -0.0948      2.00000
     78      -0.0948      2.00000
     79      -0.0415      2.00000
     80      -0.0415      2.00000
     81      -0.0004      2.00000
     82      -0.0004      2.00000
     83       0.0439      2.00000
     84       0.0439      2.00000
     85       0.1947      2.00000
     86       0.1947      2.00000
     87       0.3331      2.00000
     88       0.3331      2.00000
     89       4.5594      0.00000
     90       4.5594      0.00000
     91       4.6608      0.00000
     92       4.6608      0.00000
     93       5.2504      0.00000
     94       5.2504      0.00000
     95       5.4640      0.00000
     96       5.4640      0.00000
     97       6.0017      0.00000
     98       6.0017      0.00000
     99       6.0371      0.00000
    100       6.0371      0.00000
    101       6.8450      0.00000
    102       6.8450      0.00000
    103       7.0023      0.00000
    104       7.0023      0.00000
    105       7.1173      0.00000
    106       7.1173      0.00000
    107       7.2547      0.00000
    108       7.2548      0.00000
    109       7.4049      0.00000
    110       7.4050      0.00000
    111       7.5608      0.00000
    112       7.5608      0.00000
    113       7.8052      0.00000
    114       7.8054      0.00000
    115       8.1065      0.00000
    116       8.1068      0.00000
    117       8.2268      0.00000
    118       8.2274      0.00000
    119       8.3852      0.00000
    120       8.3953      0.00000

 k-point     7 :       0.0000    0.3333    0.5000
  band No.  band energies     occupation 
      1     -21.1924      2.00000
      2     -21.1924      2.00000
      3     -21.1915      2.00000
      4     -21.1915      2.00000
      5     -17.0712      2.00000
      6     -17.0712      2.00000
      7     -17.0710      2.00000
      8     -17.0709      2.00000
      9     -17.0682      2.00000
     10     -17.0682      2.00000
     11     -17.0627      2.00000
     12     -17.0627      2.00000
     13     -17.0189      2.00000
     14     -17.0189      2.00000
     15     -17.0185      2.00000
     16     -17.0185      2.00000
     17     -17.0137      2.00000
     18     -17.0137      2.00000
     19     -17.0135      2.00000
     20     -17.0135      2.00000
     21     -17.0087      2.00000
     22     -17.0087      2.00000
     23     -17.0083      2.00000
     24     -17.0083      2.00000
     25     -11.8521      2.00000
     26     -11.8521      2.00000
     27     -11.6708      2.00000
     28     -11.6708      2.00000
     29     -11.4305      2.00000
     30     -11.4305      2.00000
     31     -11.3805      2.00000
     32     -11.3804      2.00000
     33     -11.3524      2.00000
     34     -11.3524      2.00000
     35     -11.3207      2.00000
     36     -11.3207      2.00000
     37      -7.2309      2.00000
     38      -7.2309      2.00000
     39      -7.0628      2.00000
     40      -7.0628      2.00000
     41      -7.0524      2.00000
     42      -7.0524      2.00000
     43      -7.0395      2.00000
     44      -7.0395      2.00000
     45      -7.0374      2.00000
     46      -7.0374      2.00000
     47      -7.0217      2.00000
     48      -7.0217      2.00000
     49      -6.9884      2.00000
     50      -6.9884      2.00000
     51      -6.6484      2.00000
     52      -6.6484      2.00000
     53      -2.0104      2.00000
     54      -2.0104      2.00000
     55      -1.8589      2.00000
     56      -1.8589      2.00000
     57      -1.4908      2.00000
     58      -1.4908      2.00000
     59      -1.4495      2.00000
     60      -1.4495      2.00000
     61      -1.1780      2.00000
     62      -1.1780      2.00000
     63      -1.1473      2.00000
     64      -1.1473      2.00000
     65      -0.8109      2.00000
     66      -0.8109      2.00000
     67      -0.6873      2.00000
     68      -0.6873      2.00000
     69      -0.5657      2.00000
     70      -0.5657      2.00000
     71      -0.5174      2.00000
     72      -0.5174      2.00000
     73      -0.3524      2.00000
     74      -0.3524      2.00000
     75      -0.3028      2.00000
     76      -0.3027      2.00000
     77      -0.0844      2.00000
     78      -0.0844      2.00000
     79      -0.0536      2.00000
     80      -0.0536      2.00000
     81       0.0091      2.00000
     82       0.0091      2.00000
     83       0.0148      2.00000
     84       0.0149      2.00000
     85       0.2628      2.00000
     86       0.2628      2.00000
     87       0.3851      2.00000
     88       0.3851      2.00000
     89       4.5766      0.00000
     90       4.5766      0.00000
     91       4.6908      0.00000
     92       4.6909      0.00000
     93       5.2716      0.00000
     94       5.2716      0.00000
     95       5.4761      0.00000
     96       5.4761      0.00000
     97       6.0214      0.00000
     98       6.0215      0.00000
     99       6.0795      0.00000
    100       6.0795      0.00000
    101       6.8546      0.00000
    102       6.8547      0.00000
    103       7.0638      0.00000
    104       7.0638      0.00000
    105       7.1173      0.00000
    106       7.1174      0.00000
    107       7.1395      0.00000
    108       7.1395      0.00000
    109       7.3867      0.00000
    110       7.3871      0.00000
    111       7.5393      0.00000
    112       7.5393      0.00000
    113       7.6975      0.00000
    114       7.6981      0.00000
    115       7.7839      0.00000
    116       7.7844      0.00000
    117       8.1901      0.00000
    118       8.1922      0.00000
    119       8.5750      0.00000
    120       8.5844      0.00000

 k-point     8 :       0.3333    0.3333    0.5000
  band No.  band energies     occupation 
      1     -21.1922      2.00000
      2     -21.1922      2.00000
      3     -21.1917      2.00000
      4     -21.1917      2.00000
      5     -17.0732      2.00000
      6     -17.0732      2.00000
      7     -17.0711      2.00000
      8     -17.0711      2.00000
      9     -17.0660      2.00000
     10     -17.0659      2.00000
     11     -17.0629      2.00000
     12     -17.0628      2.00000
     13     -17.0188      2.00000
     14     -17.0188      2.00000
     15     -17.0186      2.00000
     16     -17.0186      2.00000
     17     -17.0137      2.00000
     18     -17.0137      2.00000
     19     -17.0136      2.00000
     20     -17.0135      2.00000
     21     -17.0086      2.00000
     22     -17.0086      2.00000
     23     -17.0084      2.00000
     24     -17.0084      2.00000
     25     -11.7909      2.00000
     26     -11.7909      2.00000
     27     -11.6794      2.00000
     28     -11.6794      2.00000
     29     -11.4961      2.00000
     30     -11.4961      2.00000
     31     -11.4247      2.00000
     32     -11.4247      2.00000
     33     -11.3265      2.00000
     34     -11.3265      2.00000
     35     -11.3073      2.00000
     36     -11.3073      2.00000
     37      -7.1417      2.00000
     38      -7.1417      2.00000
     39      -7.0658      2.00000
     40      -7.0658      2.00000
     41      -7.0566      2.00000
     42      -7.0566      2.00000
     43      -7.0389      2.00000
     44      -7.0389      2.00000
     45      -7.0244      2.00000
     46      -7.0244      2.00000
     47      -7.0100      2.00000
     48      -7.0100      2.00000
     49      -6.9405      2.00000
     50      -6.9405      2.00000
     51      -6.7484      2.00000
     52      -6.7484      2.00000
     53      -2.1921      2.00000
     54      -2.1921      2.00000
     55      -1.8161      2.00000
     56      -1.8161      2.00000
     57      -1.5838      2.00000
     58      -1.5838      2.00000
     59      -1.4238      2.00000
     60      -1.4238      2.00000
     61      -1.2629      2.00000
     62      -1.2629      2.00000
     63      -1.0825      2.00000
     64      -1.0825      2.00000
     65      -0.7905      2.00000
     66      -0.7905      2.00000
     67      -0.6857      2.00000
     68      -0.6857      2.00000
     69      -0.4941      2.00000
     70      -0.4941      2.00000
     71      -0.3846      2.00000
     72      -0.3846      2.00000
     73      -0.3268      2.00000
     74      -0.3268      2.00000
     75      -0.2086      2.00000
     76      -0.2086      2.00000
     77      -0.1380      2.00000
     78      -0.1380      2.00000
     79      -0.0951      2.00000
     80      -0.0951      2.00000
     81      -0.0502      2.00000
     82      -0.0502      2.00000
     83       0.0224      2.00000
     84       0.0224      2.00000
     85       0.2245      2.00000
     86       0.2245      2.00000
     87       0.4089      2.00000
     88       0.4089      2.00000
     89       4.0558      0.00000
     90       4.0558      0.00000
     91       4.8244      0.00000
     92       4.8244      0.00000
     93       5.3056      0.00000
     94       5.3056      0.00000
     95       5.4401      0.00000
     96       5.4401      0.00000
     97       5.9053      0.00000
     98       5.9053      0.00000
     99       6.5834      0.00000
    100       6.5841      0.00000
    101       7.0330      0.00000
    102       7.0335      0.00000
    103       7.1551      0.00000
    104       7.1551      0.00000
    105       7.2818      0.00000
    106       7.2820      0.00000
    107       7.3019      0.00000
    108       7.3021      0.00000
    109       7.4408      0.00000
    110       7.4411      0.00000
    111       7.5716      0.00000
    112       7.5723      0.00000
    113       7.8639      0.00000
    114       7.8648      0.00000
    115       8.1417      0.00000
    116       8.1425      0.00000
    117       8.2012      0.00000
    118       8.2019      0.00000
    119       8.4352      0.00000
    120       8.5385      0.00000


--------------------------------------------------------------------------------------------------------


 soft charge-density along one line, spin component           1
         0         1         2         3         4         5         6         7         8         9
 total charge-density along one line
 
 pseudopotential strength for first ion, spin component:           1
 62.510  65.950  -0.007  -0.004   0.009  -0.009  -0.006   0.012
 65.950  69.583  -0.007  -0.005   0.009  -0.009  -0.006   0.012
 -0.007  -0.007  16.114   0.001   0.010  21.486   0.001   0.014
 -0.004  -0.005   0.001  16.103   0.000   0.001  21.471   0.000
  0.009   0.009   0.010   0.000  16.113   0.014   0.000  21.485
 -0.009  -0.009  21.486   0.001   0.014  28.657   0.002   0.018
 -0.006  -0.006   0.001  21.471   0.000   0.002  28.638   0.000
  0.012   0.012   0.014   0.000  21.485   0.018   0.000  28.656
  0.015   0.016   0.002   0.000  -0.001   0.003   0.000  -0.002
  0.001   0.001  -0.001  -0.001   0.000  -0.001  -0.002   0.000
 -0.009  -0.009   0.001  -0.001  -0.001   0.001  -0.001  -0.001
  0.000   0.000   0.000   0.002  -0.001   0.000   0.003  -0.001
 -0.000  -0.000   0.001  -0.000   0.002   0.002  -0.000   0.002
 total augmentation occupancy for first ion, spin component:           1
  2.000   0.000   0.000   0.000   0.000   0.000   0.000   0.000   0.000   0.000   0.000   0.000   0.000
  0.000   0.000   0.000   0.000   0.000   0.000   0.000   0.000   0.000   0.000   0.000   0.000   0.000
  0.000   0.000   1.667   0.000   0.000   0.000   0.000   0.000   0.000   0.000   0.000   0.000   0.000
  0.000   0.000   0.000   1.667   0.000   0.000   0.000   0.000   0.000   0.000   0.000   0.000   0.000
  0.000   0.000   0.000   0.000   1.667   0.000   0.000   0.000   0.000   0.000   0.000   0.000   0.000
  0.000   0.000   0.000   0.000   0.000   0.000   0.000   0.000   0.000   0.000   0.000   0.000   0.000
  0.000   0.000   0.000   0.000   0.000   0.000   0.000   0.000   0.000   0.000   0.000   0.000   0.000
  0.000   0.000   0.000   0.000   0.000   0.000   0.000   0.000   0.000   0.000   0.000   0.000   0.000
  0.000   0.000   0.000   0.000   0.000   0.000   0.000   0.000   0.000   0.000   0.000   0.000   0.000
  0.000   0.000   0.000   0.000   0.000   0.000   0.000   0.000   0.000   0.000   0.000   0.000   0.000
  0.000   0.000   0.000   0.000   0.000   0.000   0.000   0.000   0.000   0.000   0.000   0.000   0.000
  0.000   0.000   0.000   0.000   0.000   0.000   0.000   0.000   0.000   0.000   0.000   0.000   0.000
  0.000   0.000   0.000   0.000   0.000   0.000   0.000   0.000   0.000   0.000   0.000   0.000   0.000


------------------------ aborting loop because EDIFF is reached ----------------------------------------


 


 total charge     
 
# of ion       s       p       d       tot
------------------------------------------
    1        1.503   2.879   0.006   4.388
    2        1.503   2.879   0.006   4.388
    3        1.501   2.900   0.006   4.407
    4        1.501   2.900   0.006   4.407
    5        1.503   2.879   0.006   4.388
    6        1.503   2.879   0.006   4.388
    7        1.501   2.900   0.006   4.407
    8        1.501   2.900   0.006   4.407
    9        1.502   2.892   0.006   4.400
   10        1.502   2.892   0.006   4.400
   11        1.502   2.892   0.006   4.400
   12        1.502   2.892   0.006   4.400
   13        1.525   0.440   9.843  11.808
   14        1.525   0.440   9.843  11.808
   15        1.525   0.440   9.843  11.808
   16        1.525   0.440   9.843  11.808
   17        2.292   4.724   0.020   7.035
   18        2.292   4.724   0.020   7.035
   19        2.292   4.724   0.020   7.035
   20        2.292   4.724   0.020   7.035
--------------------------------------------------
tot         33.289  55.338  39.523 128.151
 
    CHARGE:  cpu time    0.1710: real time    0.1767
    FORLOC:  cpu time    0.0030: real time    0.0039
    FORHF :  cpu time  570.1373: real time  571.5452
    FORNL :  cpu time    0.3549: real time    0.3606
    FORCOR:  cpu time    0.3469: real time    0.3528
    FORHAR:  cpu time    0.0140: real time    0.0173
    OFIELD:  cpu time    0.0000: real time    0.0019

 VOLUME and BASIS-vectors are now :
 -----------------------------------------------------------------------------
  energy-cutoff  :      450.00
  volume of cell :      958.84
      direct lattice vectors                 reciprocal lattice vectors
     8.675100327  0.000000000  0.000000000     0.115272442  0.000000000  0.000000000
     0.000000000  8.824000359  0.000000000     0.000000000  0.113327285  0.000000000
     0.000000000  0.000000000 12.525799751     0.000000000  0.000000000  0.079835222

  length of vectors
     8.675100327  8.824000359 12.525799751     0.115272442  0.113327285  0.079835222


 FORCES acting on ions
    electron-ion (+dipol)            ewald-force                    non-local-force                 convergence-correction
 -----------------------------------------------------------------------------------------------
   0.238E+02 -.190E+02 -.171E+02   -.244E+02 0.195E+02 0.175E+02   0.539E+00 -.456E+00 -.379E+00   -.773E-03 0.190E-03 -.831E-03
   -.238E+02 0.190E+02 0.171E+02   0.244E+02 -.195E+02 -.175E+02   -.539E+00 0.456E+00 0.379E+00   0.694E-03 -.264E-03 0.808E-03
   0.238E+02 0.190E+02 0.171E+02   -.244E+02 -.195E+02 -.175E+02   0.539E+00 0.456E+00 0.379E+00   -.693E-03 -.199E-03 0.807E-03
   -.238E+02 -.190E+02 -.171E+02   0.244E+02 0.195E+02 0.175E+02   -.539E+00 -.456E+00 -.379E+00   0.772E-03 0.266E-03 -.822E-03
   -.238E+02 0.190E+02 -.171E+02   0.244E+02 -.195E+02 0.175E+02   -.539E+00 0.456E+00 -.379E+00   0.701E-03 -.261E-03 -.825E-03
   0.238E+02 -.190E+02 0.171E+02   -.244E+02 0.195E+02 -.175E+02   0.539E+00 -.456E+00 0.379E+00   -.777E-03 0.188E-03 0.830E-03
   -.238E+02 -.190E+02 0.171E+02   0.244E+02 0.195E+02 -.175E+02   -.539E+00 -.456E+00 0.379E+00   0.768E-03 0.273E-03 0.823E-03
   0.238E+02 0.190E+02 -.171E+02   -.244E+02 -.195E+02 0.175E+02   0.539E+00 0.456E+00 -.379E+00   -.692E-03 -.205E-03 -.826E-03
   0.347E+02 -.120E+02 -.620E-04   -.354E+02 0.124E+02 -.595E-04   0.715E+00 -.382E+00 0.000E+00   -.832E-03 0.742E-03 0.668E-04
   -.347E+02 0.120E+02 -.148E-04   0.354E+02 -.124E+02 0.101E-04   -.715E+00 0.382E+00 0.000E+00   0.761E-03 -.706E-03 -.325E-04
   0.347E+02 0.120E+02 -.199E-04   -.354E+02 -.124E+02 0.101E-04   0.715E+00 0.382E+00 0.000E+00   -.751E-03 -.729E-03 -.260E-04
   -.347E+02 -.120E+02 -.566E-04   0.354E+02 0.124E+02 -.595E-04   -.715E+00 -.382E+00 0.000E+00   0.786E-03 0.732E-03 0.605E-04
   0.163E-05 -.244E-05 -.521E-07   -.946E-05 -.823E-04 0.310E-04   0.000E+00 0.000E+00 0.000E+00   0.629E-05 0.872E-04 -.330E-04
   -.210E-05 -.104E-05 0.113E-05   -.780E-04 -.228E-04 0.438E-04   0.000E+00 0.000E+00 0.000E+00   0.833E-04 0.221E-04 -.472E-04
   -.113E-05 -.841E-06 0.603E-06   -.251E-06 -.790E-04 0.141E-04   0.000E+00 0.000E+00 0.000E+00   -.285E-05 0.835E-04 -.136E-04
   -.902E-06 -.795E-06 0.404E-06   -.872E-04 -.195E-04 0.123E-05   0.000E+00 0.000E+00 0.000E+00   0.923E-04 0.184E-04 0.226E-06
   -.936E+01 -.266E+02 -.184E-04   0.945E+01 0.266E+02 0.141E-04   -.782E-01 0.452E-01 0.000E+00   -.257E-03 0.108E-02 -.370E-04
   0.936E+01 0.266E+02 -.924E-04   -.945E+01 -.266E+02 -.367E-04   0.782E-01 -.452E-01 0.000E+00   0.204E-03 -.112E-02 0.985E-04
   -.936E+01 0.266E+02 -.910E-04   0.945E+01 -.266E+02 -.367E-04   -.782E-01 -.452E-01 0.000E+00   -.213E-03 -.114E-02 0.981E-04
   0.936E+01 -.266E+02 -.215E-04   -.945E+01 0.266E+02 0.141E-04   0.782E-01 0.452E-01 0.000E+00   0.235E-03 0.110E-02 -.352E-04
 -----------------------------------------------------------------------------------------------
   0.111E-03 -.159E-03 -.463E-03   0.178E-14 0.284E-13 -.185E-13   -.222E-15 -.104E-15 -.167E-15   0.112E-03 0.169E-03 0.635E-04
 
 
 POSITION                                       TOTAL-FORCE (eV/Angst)
 -----------------------------------------------------------------------------------
      1.66797      2.69903      6.76746         0.029699     -0.013960     -0.025727
      7.00713      6.12497      5.75834        -0.029699      0.013960      0.025727
      6.00552      1.71297      5.75834         0.029699      0.013960      0.025727
      2.66958      7.11103      6.76746        -0.029699     -0.013960     -0.025727
      7.00713      6.12497      0.50456        -0.029699      0.013960     -0.025727
      1.66797      2.69903     12.02124         0.029699     -0.013960      0.025727
      2.66958      7.11103     12.02124        -0.029699     -0.013960      0.025727
      6.00552      1.71297      0.50456         0.029699      0.013960     -0.025727
      7.96010      0.00066      9.39435         0.008808     -0.009705      0.000000
      0.71500      8.82334      3.13145        -0.008808      0.009705      0.000000
      3.62255      4.41134      3.13145         0.008808      0.009705      0.000000
      5.05255      4.41266      9.39435        -0.008808     -0.009705      0.000000
      0.00000      0.00000      6.26290         0.000000     -0.000000      0.000000
      4.33755      4.41200      6.26290         0.000000     -0.000000      0.000000
      0.00000      0.00000      0.00000         0.000000     -0.000000      0.000000
      4.33755      4.41200      0.00000         0.000000     -0.000000      0.000000
      8.48474      3.74480      3.13145         0.005325     -0.000041      0.000000
      0.19036      5.07920      9.39435        -0.005325      0.000041      0.000000
      4.14719      0.66720      9.39435         0.005325      0.000041      0.000000
      4.52791      8.15680      3.13145        -0.005325     -0.000041      0.000000
 -----------------------------------------------------------------------------------
    total drift:                                0.000223      0.000010     -0.000399


--------------------------------------------------------------------------------------------------------



  FREE ENERGIE OF THE ION-ELECTRON SYSTEM (eV)
  ---------------------------------------------------
  free  energy   TOTEN  =       -67.46416844 eV

  energy  without entropy=      -67.46416844  energy(sigma->0) =      -67.46416844
 


--------------------------------------------------------------------------------------------------------


    POTLOK:  cpu time    0.3569: real time    0.3615


--------------------------------------------------------------------------------------------------------


     LOOP+:  cpu time 2339.1324: real time 2346.5983
    4ORBIT:  cpu time    0.0000: real time    0.0000
 


 total charge     
 
# of ion       s       p       d       tot
------------------------------------------
    1        1.503   2.879   0.006   4.388
    2        1.503   2.879   0.006   4.388
    3        1.501   2.900   0.006   4.407
    4        1.501   2.900   0.006   4.407
    5        1.503   2.879   0.006   4.388
    6        1.503   2.879   0.006   4.388
    7        1.501   2.900   0.006   4.407
    8        1.501   2.900   0.006   4.407
    9        1.502   2.892   0.006   4.400
   10        1.502   2.892   0.006   4.400
   11        1.502   2.892   0.006   4.400
   12        1.502   2.892   0.006   4.400
   13        1.525   0.440   9.843  11.808
   14        1.525   0.440   9.843  11.808
   15        1.525   0.440   9.843  11.808
   16        1.525   0.440   9.843  11.808
   17        2.292   4.724   0.020   7.035
   18        2.292   4.724   0.020   7.035
   19        2.292   4.724   0.020   7.035
   20        2.292   4.724   0.020   7.035
--------------------------------------------------
tot         33.289  55.338  39.523 128.151
 
 BZINTS: Fermi energy:  1.227591;176.000000 electrons
         Band energy:***********;  BLOECHL correction:  0.000000

 total amount of memory used by VASP MPI-rank0    66851. kBytes
=======================================================================

   base      :      30000. kBytes
   nonlr-proj:      18254. kBytes
   fftplans  :       2581. kBytes
   grid      :       7357. kBytes
   one-center:        311. kBytes
   HF        :        194. kBytes
   wavefun   :       8154. kBytes
 
  
  
 General timing and accounting informations for this job:
 ========================================================
  
                  Total CPU time used (sec):     2397.537
                            User time (sec):     2383.069
                          System time (sec):       14.468
                         Elapsed time (sec):     2406.291
  
                   Maximum memory used (kb):      865140.
                   Average memory used (kb):           0.
  
                          Minor page faults:      3241501
                          Major page faults:          207
                 Voluntary context switches:         8798
