 vasp.5.4.4.18Apr17-6-g9f103f2a35 (build Aug 19 2019 13:40:55) complex          
  
 executed on             LinuxIFC date 2020.04.17  08:33:21
 running on   36 total cores
 distrk:  each k-point on   36 cores,    1 groups
 distr:  one band on NCORES_PER_BAND=   1 cores,   36 groups


--------------------------------------------------------------------------------------------------------


 INCAR:
 POTCAR:    PAW_PBE Pb_d 06Sep2000                
 POTCAR:    PAW_PBE I 08Apr2002                   
 POTCAR:    PAW_PBE Cs_sv 08Apr2002               

 ----------------------------------------------------------------------------- 
|                                                                             |
|           W    W    AA    RRRRR   N    N  II  N    N   GGGG   !!!           |
|           W    W   A  A   R    R  NN   N  II  NN   N  G    G  !!!           |
|           W    W  A    A  R    R  N N  N  II  N N  N  G       !!!           |
|           W WW W  AAAAAA  RRRRR   N  N N  II  N  N N  G  GGG   !            |
|           WW  WW  A    A  R   R   N   NN  II  N   NN  G    G                |
|           W    W  A    A  R    R  N    N  II  N    N   GGGG   !!!           |
|                                                                             |
|      For optimal performance we recommend to set                            |
|        NCORE= 4 - approx SQRT( number of cores)                             |
|      NCORE specifies how many cores store one orbital (NPAR=cpu/NCORE).     |
|      This setting can  greatly improve the performance of VASP for DFT.     |
|      The default,   NCORE=1            might be grossly inefficient         |
|      on modern multi-core architectures or massively parallel machines.     |
|      Do your own testing !!!!                                               |
|      Unfortunately you need to use the default for GW and RPA calculations. |
|      (for HF NCORE is supported but not extensively tested yet)             |
|                                                                             |
 ----------------------------------------------------------------------------- 

 POTCAR:    PAW_PBE Pb_d 06Sep2000                
   VRHFIN =Pb:                                                                  
   LEXCH  = PE                                                                  
   EATOM  =  1661.6185 eV,  122.1255 Ry                                         
                                                                                
   TITEL  = PAW_PBE Pb_d 06Sep2000                                              
   LULTRA =        F    use ultrasoft PP ?                                      
   IUNSCR =        1    unscreen: 0-lin 1-nonlin 2-no                           
   RPACOR =    2.200    partial core radius                                     
   POMASS =  207.200; ZVAL   =   14.000    mass and valenz                      
   RCORE  =    2.500    outmost cutoff radius                                   
   RWIGS  =    3.260; RWIGS  =    1.725    wigner-seitz radius (au A)           
   ENMAX  =  237.835; ENMIN  =  178.376 eV                                      
   ICORE  =        3    local potential                                         
   LCOR   =        T    correct aug charges                                     
   LPAW   =        T    paw PP                                                  
   EAUG   =  391.914                                                            
   DEXC   =    0.000                                                            
   RMAX   =    2.565    core radius for proj-oper                               
   RAUG   =    1.300    factor for augmentation sphere                          
   RDEP   =    2.643    radius for radial grids                                 
   RDEPT  =    2.092    core radius for aug-charge                              
                                                                                
   Atomic configuration                                                         
   16 entries                                                                   
     n  l   j            E        occ.                                          
     1  0  0.50    -88091.8466   2.0000                                         
     2  0  0.50    -15753.4197   2.0000                                         
     2  1  1.50    -13508.1797   6.0000                                         
     3  0  0.50     -3781.7194   2.0000                                         
     3  1  1.50     -3138.2529   6.0000                                         
     3  2  2.50     -2483.2977  10.0000                                         
     4  0  0.50      -856.2895   2.0000                                         
     4  1  1.50      -645.4942   6.0000                                         
     4  2  2.50      -401.8768  10.0000                                         
     4  3  3.50      -132.9059  14.0000                                         
     5  0  0.50      -144.0950   2.0000                                         
     5  1  1.50       -85.7879   6.0000                                         
     5  2  2.50       -21.1769  10.0000                                         
     6  0  0.50       -12.0372   2.0000                                         
     6  1  1.50        -3.4971   2.0000                                         
     5  3  2.50        -2.7212   0.0000                                         
   Description                                                                  
     l       E           TYP  RCUT    TYP  RCUT                                 
     2    -21.1768523     23  2.500                                             
     2      1.3605826     23  2.500                                             
     0    -12.0371562     23  2.500                                             
     0     13.6058260     23  2.500                                             
     1     -3.4971339     23  2.500                                             
     1     13.6058260     23  2.500                                             
     3     -1.3605826      7  2.500                                             
  local pseudopotential read in
  partial core-charges read in
  partial kinetic energy density read in
  atomic valenz-charges read in
  non local Contribution for L=           2  read in
    real space projection operators read in
  non local Contribution for L=           2  read in
    real space projection operators read in
  non local Contribution for L=           0  read in
    real space projection operators read in
  non local Contribution for L=           0  read in
    real space projection operators read in
  non local Contribution for L=           1  read in
    real space projection operators read in
  non local Contribution for L=           1  read in
    real space projection operators read in
    PAW grid and wavefunctions read in
 
   number of l-projection  operators is LMAX  =           6
   number of lm-projection operators is LMMAX =          18
 
 POTCAR:    PAW_PBE I 08Apr2002                   
   VRHFIN =I : s2p5                                                             
   LEXCH  = PE                                                                  
   EATOM  =   315.8678 eV,   23.2156 Ry                                         
                                                                                
   TITEL  = PAW_PBE I 08Apr2002                                                 
   LULTRA =        F    use ultrasoft PP ?                                      
   IUNSCR =        1    unscreen: 0-lin 1-nonlin 2-no                           
   RPACOR =    2.200    partial core radius                                     
   POMASS =  126.904; ZVAL   =    7.000    mass and valenz                      
   RCORE  =    2.300    outmost cutoff radius                                   
   RWIGS  =    2.810; RWIGS  =    1.487    wigner-seitz radius (au A)           
   ENMAX  =  175.647; ENMIN  =  131.735 eV                                      
   ICORE  =        3    local potential                                         
   LCOR   =        T    correct aug charges                                     
   LPAW   =        T    paw PP                                                  
   EAUG   =  370.139                                                            
   DEXC   =    0.000                                                            
   RMAX   =    2.359    core radius for proj-oper                               
   RAUG   =    1.300    factor for augmentation sphere                          
   RDEP   =    2.392    radius for radial grids                                 
   RDEPT  =    2.170    core radius for aug-charge                              
                                                                                
   Atomic configuration                                                         
   13 entries                                                                   
     n  l   j            E        occ.                                          
     1  0  0.50    -32976.3739   2.0000                                         
     2  0  0.50     -5094.5933   2.0000                                         
     2  1  1.50     -4572.0131   6.0000                                         
     3  0  0.50     -1028.2813   2.0000                                         
     3  1  1.50      -859.0250   6.0000                                         
     3  2  2.50      -605.7620  10.0000                                         
     4  0  0.50      -180.5540   2.0000                                         
     4  1  1.50      -127.5306   6.0000                                         
     4  2  2.50       -50.2720  10.0000                                         
     5  0  0.50       -17.4058   2.0000                                         
     5  1  0.50        -7.0851   5.0000                                         
     5  2  1.50        -7.0750   0.0000                                         
     4  3  2.50        -7.0750   0.0000                                         
   Description                                                                  
     l       E           TYP  RCUT    TYP  RCUT                                 
     0    -17.4058016     23  2.300                                             
     0    -18.7663842     23  2.300                                             
     1     -7.0850686     23  2.300                                             
     1     -4.2150896     23  2.300                                             
     2     -7.0750295     23  2.300                                             
     3     -1.3605826     23  2.300                                             
  local pseudopotential read in
  partial core-charges read in
  partial kinetic energy density read in
  atomic valenz-charges read in
  non local Contribution for L=           0  read in
    real space projection operators read in
  non local Contribution for L=           0  read in
    real space projection operators read in
  non local Contribution for L=           1  read in
    real space projection operators read in
  non local Contribution for L=           1  read in
    real space projection operators read in
  non local Contribution for L=           2  read in
    real space projection operators read in
    PAW grid and wavefunctions read in
 
   number of l-projection  operators is LMAX  =           5
   number of lm-projection operators is LMMAX =          13
 
 POTCAR:    PAW_PBE Cs_sv 08Apr2002               
   VRHFIN =Cs: 5s5p6s                                                           
   LEXCH  = PE                                                                  
   EATOM  =   555.6835 eV,   40.8416 Ry                                         
                                                                                
   TITEL  = PAW_PBE Cs_sv 08Apr2002                                             
   LULTRA =        F    use ultrasoft PP ?                                      
   IUNSCR =        1    unscreen: 0-lin 1-nonlin 2-no                           
   RPACOR =    2.200    partial core radius                                     
   POMASS =  132.900; ZVAL   =    9.000    mass and valenz                      
   RCORE  =    2.500    outmost cutoff radius                                   
   RWIGS  =    2.500; RWIGS  =    1.323    wigner-seitz radius (au A)           
   ENMAX  =  220.318; ENMIN  =  165.238 eV                                      
   RCLOC  =    2.207    cutoff for local pot                                    
   LCOR   =        T    correct aug charges                                     
   LPAW   =        T    paw PP                                                  
   EAUG   =  407.933                                                            
   DEXC   =    0.000                                                            
   RMAX   =    2.554    core radius for proj-oper                               
   RAUG   =    1.300    factor for augmentation sphere                          
   RDEP   =    2.590    radius for radial grids                                 
   RDEPT  =    2.117    core radius for aug-charge                              
                                                                                
   Atomic configuration                                                         
   13 entries                                                                   
     n  l   j            E        occ.                                          
     1  0  0.50    -35790.1377   2.0000                                         
     2  0  0.50     -5613.6201   2.0000                                         
     2  1  1.50     -5035.0101   6.0000                                         
     3  0  0.50     -1167.0767   2.0000                                         
     3  1  1.50      -980.9754   6.0000                                         
     3  2  2.50      -708.0703  10.0000                                         
     4  0  0.50      -220.2386   2.0000                                         
     4  1  1.50      -160.7596   6.0000                                         
     4  2  2.50       -74.2354  10.0000                                         
     5  0  0.50       -26.7287   2.0000                                         
     6  0  0.50        -2.0862   1.0000                                         
     5  1  1.50       -13.5159   6.0000                                         
     5  2  2.50        -0.4136   0.0000                                         
   Description                                                                  
     l       E           TYP  RCUT    TYP  RCUT                                 
     0    -26.7287425     23  1.900                                             
     0     -2.0862306     23  1.900                                             
     1    -13.5158719     23  2.500                                             
     1     -2.7211652     23  2.500                                             
     2     -0.4136171     23  2.500                                             
  local pseudopotential read in
  partial core-charges read in
  partial kinetic energy density read in
  atomic valenz-charges read in
  non local Contribution for L=           0  read in
    real space projection operators read in
  non local Contribution for L=           0  read in
    real space projection operators read in
  non local Contribution for L=           1  read in
    real space projection operators read in
  non local Contribution for L=           1  read in
    real space projection operators read in
  non local Contribution for L=           2  read in
    real space projection operators read in
    PAW grid and wavefunctions read in
 
   number of l-projection  operators is LMAX  =           5
   number of lm-projection operators is LMMAX =          13
 

 ----------------------------------------------------------------------------- 
|                                                                             |
|  ADVICE TO THIS USER RUNNING 'VASP/VAMP'   (HEAR YOUR MASTER'S VOICE ...):  |
|                                                                             |
|      You have a (more or less) 'large supercell' and for larger cells       |
|      it might be more efficient to use real space projection opertators     |
|      So try LREAL= Auto  in the INCAR   file.                               |
|      Mind:          For very  accurate calculation you might also keep the  |
|      reciprocal projection scheme          (i.e. LREAL=.FALSE.)             |
|                                                                             |
 ----------------------------------------------------------------------------- 

  PAW_PBE Pb_d 06Sep2000                :
 energy of atom  1       EATOM=-1661.6185
 kinetic energy error for atom=    0.0063 (will be added to EATOM!!)
  PAW_PBE I 08Apr2002                   :
 energy of atom  2       EATOM= -315.8678
 kinetic energy error for atom=    0.0010 (will be added to EATOM!!)
  PAW_PBE Cs_sv 08Apr2002               :
 energy of atom  3       EATOM= -555.6835
 kinetic energy error for atom=    0.0031 (will be added to EATOM!!)
 
 
 POSCAR: delta-Cesium_Lead_Iodide                
  positions in direct lattice
  velocities in cartesian coordinates
 exchange correlation table for  LEXCH =        8
   RHO(1)=    0.500       N(1)  =     2000
   RHO(2)=  100.500       N(2)  =     4000
 


--------------------------------------------------------------------------------------------------------


 ion  position               nearest neighbor table
   1  0.161  0.250  0.439-   9 3.10   7 3.24   7 3.24  14 3.28  14 3.28  13 3.37
   2  0.839  0.750  0.561-  10 3.10   8 3.24   8 3.24  13 3.28  13 3.28  14 3.37
   3  0.339  0.750  0.939-  11 3.10   5 3.24   5 3.24  16 3.28  16 3.28  15 3.37
   4  0.661  0.250  0.061-  12 3.10   6 3.24   6 3.24  15 3.28  15 3.28  16 3.37
   5  0.160  0.250  0.002-   3 3.24   3 3.24
   6  0.840  0.750  0.998-   4 3.24   4 3.24
   7  0.340  0.750  0.502-   1 3.24   1 3.24
   8  0.660  0.250  0.498-   2 3.24   2 3.24
   9  0.300  0.250  0.285-   1 3.10
  10  0.700  0.750  0.715-   2 3.10
  11  0.200  0.750  0.785-   3 3.10
  12  0.800  0.250  0.215-   4 3.10
  13  0.034  0.250  0.614-   2 3.28   2 3.28   1 3.37
  14  0.966  0.750  0.386-   1 3.28   1 3.28   2 3.37
  15  0.466  0.750  0.114-   4 3.28   4 3.28   3 3.37
  16  0.534  0.250  0.886-   3 3.28   3 3.28   4 3.37
  17  0.417  0.250  0.672-
  18  0.583  0.750  0.328-
  19  0.083  0.750  0.172-
  20  0.917  0.250  0.828-
 
  LATTYP: Found a simple orthorhombic cell.
 ALAT       =     4.7905001640
 B/A-ratio  =     2.1781024798
 C/A-ratio  =     3.7075459914
  
  Lattice vectors:
  
 A1 = (   0.0000000000,  -4.7905001640,   0.0000000000)
 A2 = ( -10.4342002869,   0.0000000000,   0.0000000000)
 A3 = (   0.0000000000,   0.0000000000, -17.7609996796)


Analysis of symmetry for initial positions (statically):
=====================================================================
 Subroutine PRICEL returns:
 Original cell was already a primitive cell.
 

 Routine SETGRP: Setting up the symmetry group for a 
 simple orthorhombic supercell.


 Subroutine GETGRP returns: Found  8 space group operations
 (whereof  2 operations were pure point group operations)
 out of a pool of  8 trial point group operations.


The static configuration has the point symmetry S_2 .
 The point group associated with its full space group is D_2h.


Analysis of symmetry for dynamics (positions and initial velocities):
=====================================================================
 Subroutine PRICEL returns:
 Original cell was already a primitive cell.
 

 Routine SETGRP: Setting up the symmetry group for a 
 simple orthorhombic supercell.


 Subroutine GETGRP returns: Found  8 space group operations
 (whereof  2 operations were pure point group operations)
 out of a pool of  8 trial point group operations.


The dynamic configuration has the point symmetry S_2 .
 The point group associated with its full space group is D_2h.


Analysis of structural, dynamic, and magnetic symmetry:
=====================================================================
 Subroutine PRICEL returns:
 Original cell was already a primitive cell.
 

 Routine SETGRP: Setting up the symmetry group for a 
 simple orthorhombic supercell.


 Subroutine GETGRP returns: Found  2 space group operations
 (whereof  2 operations were pure point group operations)
 out of a pool of  8 trial point group operations.


The (compounded) configuration has the point symmetry S_2 .


 Subroutine INISYM returns: Found  2 space group operations
 (whereof  2 operations are pure point group operations),
 and found     1 'primitive' translations

 
 
 KPOINTS: K-Path Generated by VASPKIT.            
  interpolating k-points between supplied coordinates
  k-points in reciprocal lattice
Space group operators:
 irot       det(A)        alpha          n_x          n_y          n_z        tau_x        tau_y        tau_z
    1     1.000000     0.000000     1.000000     0.000000     0.000000     0.000000     0.000000     0.000000
    2    -1.000000     0.000000     1.000000     0.000000     0.000000     0.000000     0.000000     0.000000


--------------------------------------------------------------------------------------------------------




 Dimension of arrays:
   k-points           NKPTS =    240   k-points in BZ     NKDIM =    240   number of bands    NBANDS=    216
   number of dos      NEDOS =   2000   number of ions     NIONS =     20
   non local maximal  LDIM  =      6   non local SUM 2l+1 LMDIM =     18
   total plane-waves  NPLWV = 145152
   max r-space proj   IRMAX =      1   max aug-charges    IRDMAX=   9656
   dimension x,y,z NGX =    54 NGY =   28 NGZ =   96
   dimension x,y,z NGXF=   108 NGYF=   56 NGZF=  192
   support grid    NGXF=   108 NGYF=   56 NGZF=  192
   ions per type =               4  12   4
   NGX,Y,Z   is equivalent  to a cutoff of   8.60,  9.72,  8.99 a.u.
   NGXF,Y,Z  is equivalent  to a cutoff of  17.21, 19.43, 17.97 a.u.

 SYSTEM =  unknown system                          
 POSCAR =  delta-Cesium_Lead_Iodide                

 Startparameter for this run:
   NWRITE =      2    write-flag & timer
   PREC   = normal    normal or accurate (medium, high low for compatibility)
   ISTART =      1    job   : 0-new  1-cont  2-samecut
   ICHARG =     11    charge: 1-file 2-atom 10-const
   ISPIN  =      1    spin polarized calculation?
   LNONCOLLINEAR =      T non collinear calculations
   LSORBIT =      T    spin-orbit coupling
   INIWAV =      1    electr: 0-lowe 1-rand  2-diag
   LASPH  =      F    aspherical Exc in radial PAW
   METAGGA=      F    non-selfconsistent MetaGGA calc.

 Electronic Relaxation 1
   ENCUT  =  520.0 eV  33.07 Ry    5.75 a.u.  18.05  8.29 30.72*2*pi/ulx,y,z
   ENINI  =  520.0     initial cutoff
   ENAUG  =  407.9 eV  augmentation charge cutoff
   NELM   =     60;   NELMIN=  2; NELMDL=  0     # of ELM steps 
   EDIFF  = 0.1E-04   stopping-criterion for ELM
   LREAL  =      F    real-space projection
   NLSPLINE    = F    spline interpolate recip. space projectors
   LCOMPAT=      F    compatible to vasp.4.4
   GGA_COMPAT  = F    GGA compatible to vasp.4.4-vasp.4.6
   LMAXPAW     = -100 max onsite density
   LMAXMIX     =    4 max onsite mixed and CHGCAR
   VOSKOWN=      1    Vosko Wilk Nusair interpolation
   ROPT   =    0.00000   0.00000   0.00000
 Ionic relaxation
   EDIFFG = 0.1E-03   stopping-criterion for IOM
   NSW    =      0    number of steps for IOM
   NBLOCK =      1;   KBLOCK =      1    inner block; outer block 
   IBRION =     -1    ionic relax: 0-MD 1-quasi-New 2-CG
   NFREE  =      0    steps in history (QN), initial steepest desc. (CG)
   ISIF   =      2    stress and relaxation
   IWAVPR =     10    prediction:  0-non 1-charg 2-wave 3-comb
   ISYM   =      2    0-nonsym 1-usesym 2-fastsym
   LCORR  =      T    Harris-Foulkes like correction to forces

   POTIM  = 0.1000    time-step for ionic-motion
   TEIN   =    0.0    initial temperature
   TEBEG  =    0.0;   TEEND  =   0.0 temperature during run
   SMASS  =  -3.00    Nose mass-parameter (am)
   estimated Nose-frequenzy (Omega)   =  0.10E-29 period in steps =****** mass=  -0.249E-26a.u.
   SCALEE = 1.0000    scale energy and forces
   NPACO  =    256;   APACO  = 16.0  distance and # of slots for P.C.
   PSTRESS=    0.0 pullay stress

  Mass of Ions in am
   POMASS = 207.20126.90132.90
  Ionic Valenz
   ZVAL   =  14.00  7.00  9.00
  Atomic Wigner-Seitz radii
   RWIGS  =  -1.00 -1.00 -1.00
  virtual crystal weights 
   VCA    =   1.00  1.00  1.00
   NELECT =     176.0000    total number of electrons
   NUPDOWN=      -1.0000    fix difference up-down

 DOS related values:
   EMIN   =  10.00;   EMAX   =-10.00  energy-range for DOS
   EFERMI =   0.00
   ISMEAR =     1;   SIGMA  =   0.20  broadening in eV -4-tet -1-fermi 0-gaus

 Electronic relaxation 2 (details)
   IALGO  =     38    algorithm
   LDIAG  =      T    sub-space diagonalisation (order eigenvalues)
   LSUBROT=      F    optimize rotation matrix (better conditioning)
   TURBO    =      0    0=normal 1=particle mesh
   IRESTART =      0    0=no restart 2=restart with 2 vectors
   NREBOOT  =      0    no. of reboots
   NMIN     =      0    reboot dimension
   EREF     =   0.00    reference energy to select bands
   IMIX   =      4    mixing-type and parameters
     AMIX     =   0.40;   BMIX     =  1.00
     AMIX_MAG =   1.60;   BMIX_MAG =  1.00
     AMIN     =   0.10
     WC   =   100.;   INIMIX=   1;  MIXPRE=   1;  MAXMIX= -45

 Intra band minimization:
   WEIMIN = 0.0000     energy-eigenvalue tresh-hold
   EBREAK =  0.12E-07  absolut break condition
   DEPER  =   0.30     relativ break condition  

   TIME   =   0.40     timestep for ELM

  volume/ion in A,a.u.               =      44.39       299.55
  Fermi-wavevector in a.u.,A,eV,Ry     =   0.954575  1.803885 12.397803  0.911213
  Thomas-Fermi vector in A             =   2.083334
 
 Write flags
   LWAVE        =      F    write WAVECAR
   LDOWNSAMPLE  =      F    k-point downsampling of WAVECAR
   LCHARG       =      F    write CHGCAR
   LVTOT        =      F    write LOCPOT, total local potential
   LVHAR        =      F    write LOCPOT, Hartree potential only
   LELF         =      F    write electronic localiz. function (ELF)
   LORBIT       =     10    0 simple, 1 ext, 2 COOP (PROOUT), +10 PAW based schemes


 Dipole corrections
   LMONO  =      F    monopole corrections only (constant potential shift)
   LDIPOL =      F    correct potential (dipole corrections)
   IDIPOL =      0    1-x, 2-y, 3-z, 4-all directions 
   EPSILON=  1.0000000 bulk dielectric constant

 Exchange correlation treatment:
   GGA     =    --    GGA type
   LEXCH   =     8    internal setting for exchange type
   VOSKOWN=      1    Vosko Wilk Nusair interpolation
   LHFCALC =     F    Hartree Fock is set to
   LHFONE  =     F    Hartree Fock one center treatment
   AEXX    =    0.0000 exact exchange contribution

 Linear response parameters
   LEPSILON=     F    determine dielectric tensor
   LRPA    =     F    only Hartree local field effects (RPA)
   LNABLA  =     F    use nabla operator in PAW spheres
   LVEL    =     F    velocity operator in full k-point grid
   LINTERFAST=   F  fast interpolation
   KINTER  =     0    interpolate to denser k-point grid
   CSHIFT  =0.1000    complex shift for real part using Kramers Kronig
   OMEGAMAX=  -1.0    maximum frequency
   DEG_THRESHOLD= 0.2000000E-02 threshold for treating states as degnerate
   RTIME   =   -0.100 relaxation time in fs
  (WPLASMAI=    0.000 imaginary part of plasma frequency in eV, 0.658/RTIME)
   DFIELD  = 0.0000000 0.0000000 0.0000000 field for delta impulse in time
 
 Orbital magnetization related:
   ORBITALMAG=     F  switch on orbital magnetization
   LCHIMAG   =     F  perturbation theory with respect to B field
   DQ        =  0.001000  dq finite difference perturbation B field
   LLRAUG    =     F  two centre corrections for induced B field



--------------------------------------------------------------------------------------------------------


 Static calculation
 charge density and potential remain constant during run
 non collinear spin polarized calculation
 Variant of blocked Davidson
 Davidson routine will perform the subspace rotation
 perform sub-space diagonalisation
    after iterative eigenvector-optimisation
 no mixing
 using additional bands          128
 reciprocal scheme for non local part
 use partial core corrections
 calculate Harris-corrections to forces 
   (improved forces if not selfconsistent)
 use gradient corrections 
 WARNING: stress and forces are not correct
  (second derivative of E(xc) not defined)
 use of overlap-Matrix (Vanderbilt PP)
 Methfessel and Paxton  Order N= 1 SIGMA  =   0.20


--------------------------------------------------------------------------------------------------------


  energy-cutoff  :      450.00
  volume of cell :      887.78
      direct lattice vectors                 reciprocal lattice vectors
    10.434200287  0.000000000  0.000000000     0.095838682  0.000000000  0.000000000
     0.000000000  4.790500164  0.000000000     0.000000000  0.208746470  0.000000000
     0.000000000  0.000000000 17.760999680     0.000000000  0.000000000  0.056303137

  length of vectors
    10.434200287  4.790500164 17.760999680     0.095838682  0.208746470  0.056303137


 
 old parameters found on file WAVECAR:
  energy-cutoff  :      450.00
  volume of cell :      887.78
      direct lattice vectors                 reciprocal lattice vectors
    10.434200287  0.000000000  0.000000000     0.095838682  0.000000000  0.000000000
     0.000000000  4.790500164  0.000000000     0.000000000  0.208746470  0.000000000
     0.000000000  0.000000000 17.760999680     0.000000000  0.000000000  0.056303137

  length of vectors

 
 k-points in units of 2pi/SCALE and weight: K-Path Generated by VASPKIT.            
   0.00000000  0.00000000  0.00000000       0.004
   0.00252207  0.00000000  0.00000000       0.004
   0.00504414  0.00000000  0.00000000       0.004
   0.00756621  0.00000000  0.00000000       0.004
   0.01008828  0.00000000  0.00000000       0.004
   0.01261035  0.00000000  0.00000000       0.004
   0.01513242  0.00000000  0.00000000       0.004
   0.01765449  0.00000000  0.00000000       0.004
   0.02017656  0.00000000  0.00000000       0.004
   0.02269864  0.00000000  0.00000000       0.004
   0.02522071  0.00000000  0.00000000       0.004
   0.02774278  0.00000000  0.00000000       0.004
   0.03026485  0.00000000  0.00000000       0.004
   0.03278692  0.00000000  0.00000000       0.004
   0.03530899  0.00000000  0.00000000       0.004
   0.03783106  0.00000000  0.00000000       0.004
   0.04035313  0.00000000  0.00000000       0.004
   0.04287520  0.00000000  0.00000000       0.004
   0.04539727  0.00000000  0.00000000       0.004
   0.04791934  0.00000000  0.00000000       0.004
   0.04791934  0.00000000  0.00000000       0.004
   0.04791934  0.00549333  0.00000000       0.004
   0.04791934  0.01098666  0.00000000       0.004
   0.04791934  0.01647998  0.00000000       0.004
   0.04791934  0.02197331  0.00000000       0.004
   0.04791934  0.02746664  0.00000000       0.004
   0.04791934  0.03295997  0.00000000       0.004
   0.04791934  0.03845330  0.00000000       0.004
   0.04791934  0.04394663  0.00000000       0.004
   0.04791934  0.04943995  0.00000000       0.004
   0.04791934  0.05493328  0.00000000       0.004
   0.04791934  0.06042661  0.00000000       0.004
   0.04791934  0.06591994  0.00000000       0.004
   0.04791934  0.07141327  0.00000000       0.004
   0.04791934  0.07690659  0.00000000       0.004
   0.04791934  0.08239992  0.00000000       0.004
   0.04791934  0.08789325  0.00000000       0.004
   0.04791934  0.09338658  0.00000000       0.004
   0.04791934  0.09887991  0.00000000       0.004
   0.04791934  0.10437324  0.00000000       0.004
   0.04791934  0.10437324  0.00000000       0.004
   0.04539727  0.10437324  0.00000000       0.004
   0.04287520  0.10437324  0.00000000       0.004
   0.04035313  0.10437324  0.00000000       0.004
   0.03783106  0.10437324  0.00000000       0.004
   0.03530899  0.10437324  0.00000000       0.004
   0.03278692  0.10437324  0.00000000       0.004
   0.03026485  0.10437324  0.00000000       0.004
   0.02774278  0.10437324  0.00000000       0.004
   0.02522071  0.10437324  0.00000000       0.004
   0.02269864  0.10437324  0.00000000       0.004
   0.02017656  0.10437324  0.00000000       0.004
   0.01765449  0.10437324  0.00000000       0.004
   0.01513242  0.10437324  0.00000000       0.004
   0.01261035  0.10437324  0.00000000       0.004
   0.01008828  0.10437324  0.00000000       0.004
   0.00756621  0.10437324  0.00000000       0.004
   0.00504414  0.10437324  0.00000000       0.004
   0.00252207  0.10437324  0.00000000       0.004
   0.00000000  0.10437324  0.00000000       0.004
   0.00000000  0.10437324  0.00000000       0.004
   0.00000000  0.09887991  0.00000000       0.004
   0.00000000  0.09338658  0.00000000       0.004
   0.00000000  0.08789325  0.00000000       0.004
   0.00000000  0.08239992  0.00000000       0.004
   0.00000000  0.07690659  0.00000000       0.004
   0.00000000  0.07141327  0.00000000       0.004
   0.00000000  0.06591994  0.00000000       0.004
   0.00000000  0.06042661  0.00000000       0.004
   0.00000000  0.05493328  0.00000000       0.004
   0.00000000  0.04943995  0.00000000       0.004
   0.00000000  0.04394663  0.00000000       0.004
   0.00000000  0.03845330  0.00000000       0.004
   0.00000000  0.03295997  0.00000000       0.004
   0.00000000  0.02746664  0.00000000       0.004
   0.00000000  0.02197331  0.00000000       0.004
   0.00000000  0.01647998  0.00000000       0.004
   0.00000000  0.01098666  0.00000000       0.004
   0.00000000  0.00549333  0.00000000       0.004
   0.00000000  0.00000000  0.00000000       0.004
   0.00000000  0.00000000  0.00000000       0.004
   0.00000000  0.00000000  0.00148166       0.004
   0.00000000  0.00000000  0.00296332       0.004
   0.00000000  0.00000000  0.00444498       0.004
   0.00000000  0.00000000  0.00592665       0.004
   0.00000000  0.00000000  0.00740831       0.004
   0.00000000  0.00000000  0.00888997       0.004
   0.00000000  0.00000000  0.01037163       0.004
   0.00000000  0.00000000  0.01185329       0.004
   0.00000000  0.00000000  0.01333495       0.004
   0.00000000  0.00000000  0.01481662       0.004
   0.00000000  0.00000000  0.01629828       0.004
   0.00000000  0.00000000  0.01777994       0.004
   0.00000000  0.00000000  0.01926160       0.004
   0.00000000  0.00000000  0.02074326       0.004
   0.00000000  0.00000000  0.02222492       0.004
   0.00000000  0.00000000  0.02370658       0.004
   0.00000000  0.00000000  0.02518825       0.004
   0.00000000  0.00000000  0.02666991       0.004
   0.00000000  0.00000000  0.02815157       0.004
   0.00000000  0.00000000  0.02815157       0.004
   0.00252207  0.00000000  0.02815157       0.004
   0.00504414  0.00000000  0.02815157       0.004
   0.00756621  0.00000000  0.02815157       0.004
   0.01008828  0.00000000  0.02815157       0.004
   0.01261035  0.00000000  0.02815157       0.004
   0.01513242  0.00000000  0.02815157       0.004
   0.01765449  0.00000000  0.02815157       0.004
   0.02017656  0.00000000  0.02815157       0.004
   0.02269864  0.00000000  0.02815157       0.004
   0.02522071  0.00000000  0.02815157       0.004
   0.02774278  0.00000000  0.02815157       0.004
   0.03026485  0.00000000  0.02815157       0.004
   0.03278692  0.00000000  0.02815157       0.004
   0.03530899  0.00000000  0.02815157       0.004
   0.03783106  0.00000000  0.02815157       0.004
   0.04035313  0.00000000  0.02815157       0.004
   0.04287520  0.00000000  0.02815157       0.004
   0.04539727  0.00000000  0.02815157       0.004
   0.04791934  0.00000000  0.02815157       0.004
   0.04791934  0.00000000  0.02815157       0.004
   0.04791934  0.00549333  0.02815157       0.004
   0.04791934  0.01098666  0.02815157       0.004
   0.04791934  0.01647998  0.02815157       0.004
   0.04791934  0.02197331  0.02815157       0.004
   0.04791934  0.02746664  0.02815157       0.004
   0.04791934  0.03295997  0.02815157       0.004
   0.04791934  0.03845330  0.02815157       0.004
   0.04791934  0.04394663  0.02815157       0.004
   0.04791934  0.04943995  0.02815157       0.004
   0.04791934  0.05493328  0.02815157       0.004
   0.04791934  0.06042661  0.02815157       0.004
   0.04791934  0.06591994  0.02815157       0.004
   0.04791934  0.07141327  0.02815157       0.004
   0.04791934  0.07690659  0.02815157       0.004
   0.04791934  0.08239992  0.02815157       0.004
   0.04791934  0.08789325  0.02815157       0.004
   0.04791934  0.09338658  0.02815157       0.004
   0.04791934  0.09887991  0.02815157       0.004
   0.04791934  0.10437324  0.02815157       0.004
   0.04791934  0.10437324  0.02815157       0.004
   0.04539727  0.10437324  0.02815157       0.004
   0.04287520  0.10437324  0.02815157       0.004
   0.04035313  0.10437324  0.02815157       0.004
   0.03783106  0.10437324  0.02815157       0.004
   0.03530899  0.10437324  0.02815157       0.004
   0.03278692  0.10437324  0.02815157       0.004
   0.03026485  0.10437324  0.02815157       0.004
   0.02774278  0.10437324  0.02815157       0.004
   0.02522071  0.10437324  0.02815157       0.004
   0.02269864  0.10437324  0.02815157       0.004
   0.02017656  0.10437324  0.02815157       0.004
   0.01765449  0.10437324  0.02815157       0.004
   0.01513242  0.10437324  0.02815157       0.004
   0.01261035  0.10437324  0.02815157       0.004
   0.01008828  0.10437324  0.02815157       0.004
   0.00756621  0.10437324  0.02815157       0.004
   0.00504414  0.10437324  0.02815157       0.004
   0.00252207  0.10437324  0.02815157       0.004
   0.00000000  0.10437324  0.02815157       0.004
   0.00000000  0.10437324  0.02815157       0.004
   0.00000000  0.09887991  0.02815157       0.004
   0.00000000  0.09338658  0.02815157       0.004
   0.00000000  0.08789325  0.02815157       0.004
   0.00000000  0.08239992  0.02815157       0.004
   0.00000000  0.07690659  0.02815157       0.004
   0.00000000  0.07141327  0.02815157       0.004
   0.00000000  0.06591994  0.02815157       0.004
   0.00000000  0.06042661  0.02815157       0.004
   0.00000000  0.05493328  0.02815157       0.004
   0.00000000  0.04943995  0.02815157       0.004
   0.00000000  0.04394663  0.02815157       0.004
   0.00000000  0.03845330  0.02815157       0.004
   0.00000000  0.03295997  0.02815157       0.004
   0.00000000  0.02746664  0.02815157       0.004
   0.00000000  0.02197331  0.02815157       0.004
   0.00000000  0.01647998  0.02815157       0.004
   0.00000000  0.01098666  0.02815157       0.004
   0.00000000  0.00549333  0.02815157       0.004
   0.00000000  0.00000000  0.02815157       0.004
   0.04791934  0.00000000  0.00000000       0.004
   0.04791934  0.00000000  0.00148166       0.004
   0.04791934  0.00000000  0.00296332       0.004
   0.04791934  0.00000000  0.00444498       0.004
   0.04791934  0.00000000  0.00592665       0.004
   0.04791934  0.00000000  0.00740831       0.004
   0.04791934  0.00000000  0.00888997       0.004
   0.04791934  0.00000000  0.01037163       0.004
   0.04791934  0.00000000  0.01185329       0.004
   0.04791934  0.00000000  0.01333495       0.004
   0.04791934  0.00000000  0.01481662       0.004
   0.04791934  0.00000000  0.01629828       0.004
   0.04791934  0.00000000  0.01777994       0.004
   0.04791934  0.00000000  0.01926160       0.004
   0.04791934  0.00000000  0.02074326       0.004
   0.04791934  0.00000000  0.02222492       0.004
   0.04791934  0.00000000  0.02370658       0.004
   0.04791934  0.00000000  0.02518825       0.004
   0.04791934  0.00000000  0.02666991       0.004
   0.04791934  0.00000000  0.02815157       0.004
   0.00000000  0.10437324  0.00000000       0.004
   0.00000000  0.10437324  0.00148166       0.004
   0.00000000  0.10437324  0.00296332       0.004
   0.00000000  0.10437324  0.00444498       0.004
   0.00000000  0.10437324  0.00592665       0.004
   0.00000000  0.10437324  0.00740831       0.004
   0.00000000  0.10437324  0.00888997       0.004
   0.00000000  0.10437324  0.01037163       0.004
   0.00000000  0.10437324  0.01185329       0.004
   0.00000000  0.10437324  0.01333495       0.004
   0.00000000  0.10437324  0.01481662       0.004
   0.00000000  0.10437324  0.01629828       0.004
   0.00000000  0.10437324  0.01777994       0.004
   0.00000000  0.10437324  0.01926160       0.004
   0.00000000  0.10437324  0.02074326       0.004
   0.00000000  0.10437324  0.02222492       0.004
   0.00000000  0.10437324  0.02370658       0.004
   0.00000000  0.10437324  0.02518825       0.004
   0.00000000  0.10437324  0.02666991       0.004
   0.00000000  0.10437324  0.02815157       0.004
   0.04791934  0.10437324  0.00000000       0.004
   0.04791934  0.10437324  0.00148166       0.004
   0.04791934  0.10437324  0.00296332       0.004
   0.04791934  0.10437324  0.00444498       0.004
   0.04791934  0.10437324  0.00592665       0.004
   0.04791934  0.10437324  0.00740831       0.004
   0.04791934  0.10437324  0.00888997       0.004
   0.04791934  0.10437324  0.01037163       0.004
   0.04791934  0.10437324  0.01185329       0.004
   0.04791934  0.10437324  0.01333495       0.004
   0.04791934  0.10437324  0.01481662       0.004
   0.04791934  0.10437324  0.01629828       0.004
   0.04791934  0.10437324  0.01777994       0.004
   0.04791934  0.10437324  0.01926160       0.004
   0.04791934  0.10437324  0.02074326       0.004
   0.04791934  0.10437324  0.02222492       0.004
   0.04791934  0.10437324  0.02370658       0.004
   0.04791934  0.10437324  0.02518825       0.004
   0.04791934  0.10437324  0.02666991       0.004
   0.04791934  0.10437324  0.02815157       0.004
 
 k-points in reciprocal lattice and weights: K-Path Generated by VASPKIT.            
   0.00000000  0.00000000  0.00000000       0.004
   0.02631579  0.00000000  0.00000000       0.004
   0.05263158  0.00000000  0.00000000       0.004
   0.07894737  0.00000000  0.00000000       0.004
   0.10526316  0.00000000  0.00000000       0.004
   0.13157895  0.00000000  0.00000000       0.004
   0.15789474  0.00000000  0.00000000       0.004
   0.18421053  0.00000000  0.00000000       0.004
   0.21052632  0.00000000  0.00000000       0.004
   0.23684211  0.00000000  0.00000000       0.004
   0.26315789  0.00000000  0.00000000       0.004
   0.28947368  0.00000000  0.00000000       0.004
   0.31578947  0.00000000  0.00000000       0.004
   0.34210526  0.00000000  0.00000000       0.004
   0.36842105  0.00000000  0.00000000       0.004
   0.39473684  0.00000000  0.00000000       0.004
   0.42105263  0.00000000  0.00000000       0.004
   0.44736842  0.00000000  0.00000000       0.004
   0.47368421  0.00000000  0.00000000       0.004
   0.50000000  0.00000000  0.00000000       0.004
   0.50000000  0.00000000  0.00000000       0.004
   0.50000000  0.02631579  0.00000000       0.004
   0.50000000  0.05263158  0.00000000       0.004
   0.50000000  0.07894737  0.00000000       0.004
   0.50000000  0.10526316  0.00000000       0.004
   0.50000000  0.13157895  0.00000000       0.004
   0.50000000  0.15789474  0.00000000       0.004
   0.50000000  0.18421053  0.00000000       0.004
   0.50000000  0.21052632  0.00000000       0.004
   0.50000000  0.23684211  0.00000000       0.004
   0.50000000  0.26315789  0.00000000       0.004
   0.50000000  0.28947368  0.00000000       0.004
   0.50000000  0.31578947  0.00000000       0.004
   0.50000000  0.34210526  0.00000000       0.004
   0.50000000  0.36842105  0.00000000       0.004
   0.50000000  0.39473684  0.00000000       0.004
   0.50000000  0.42105263  0.00000000       0.004
   0.50000000  0.44736842  0.00000000       0.004
   0.50000000  0.47368421  0.00000000       0.004
   0.50000000  0.50000000  0.00000000       0.004
   0.50000000  0.50000000  0.00000000       0.004
   0.47368421  0.50000000  0.00000000       0.004
   0.44736842  0.50000000  0.00000000       0.004
   0.42105263  0.50000000  0.00000000       0.004
   0.39473684  0.50000000  0.00000000       0.004
   0.36842105  0.50000000  0.00000000       0.004
   0.34210526  0.50000000  0.00000000       0.004
   0.31578947  0.50000000  0.00000000       0.004
   0.28947368  0.50000000  0.00000000       0.004
   0.26315789  0.50000000  0.00000000       0.004
   0.23684211  0.50000000  0.00000000       0.004
   0.21052632  0.50000000  0.00000000       0.004
   0.18421053  0.50000000  0.00000000       0.004
   0.15789474  0.50000000  0.00000000       0.004
   0.13157895  0.50000000  0.00000000       0.004
   0.10526316  0.50000000  0.00000000       0.004
   0.07894737  0.50000000  0.00000000       0.004
   0.05263158  0.50000000  0.00000000       0.004
   0.02631579  0.50000000  0.00000000       0.004
   0.00000000  0.50000000  0.00000000       0.004
   0.00000000  0.50000000  0.00000000       0.004
   0.00000000  0.47368421  0.00000000       0.004
   0.00000000  0.44736842  0.00000000       0.004
   0.00000000  0.42105263  0.00000000       0.004
   0.00000000  0.39473684  0.00000000       0.004
   0.00000000  0.36842105  0.00000000       0.004
   0.00000000  0.34210526  0.00000000       0.004
   0.00000000  0.31578947  0.00000000       0.004
   0.00000000  0.28947368  0.00000000       0.004
   0.00000000  0.26315789  0.00000000       0.004
   0.00000000  0.23684211  0.00000000       0.004
   0.00000000  0.21052632  0.00000000       0.004
   0.00000000  0.18421053  0.00000000       0.004
   0.00000000  0.15789474  0.00000000       0.004
   0.00000000  0.13157895  0.00000000       0.004
   0.00000000  0.10526316  0.00000000       0.004
   0.00000000  0.07894737  0.00000000       0.004
   0.00000000  0.05263158  0.00000000       0.004
   0.00000000  0.02631579  0.00000000       0.004
   0.00000000  0.00000000  0.00000000       0.004
   0.00000000  0.00000000  0.00000000       0.004
   0.00000000  0.00000000  0.02631579       0.004
   0.00000000  0.00000000  0.05263158       0.004
   0.00000000  0.00000000  0.07894737       0.004
   0.00000000  0.00000000  0.10526316       0.004
   0.00000000  0.00000000  0.13157895       0.004
   0.00000000  0.00000000  0.15789474       0.004
   0.00000000  0.00000000  0.18421053       0.004
   0.00000000  0.00000000  0.21052632       0.004
   0.00000000  0.00000000  0.23684211       0.004
   0.00000000  0.00000000  0.26315789       0.004
   0.00000000  0.00000000  0.28947368       0.004
   0.00000000  0.00000000  0.31578947       0.004
   0.00000000  0.00000000  0.34210526       0.004
   0.00000000  0.00000000  0.36842105       0.004
   0.00000000  0.00000000  0.39473684       0.004
   0.00000000  0.00000000  0.42105263       0.004
   0.00000000  0.00000000  0.44736842       0.004
   0.00000000  0.00000000  0.47368421       0.004
   0.00000000  0.00000000  0.50000000       0.004
   0.00000000  0.00000000  0.50000000       0.004
   0.02631579  0.00000000  0.50000000       0.004
   0.05263158  0.00000000  0.50000000       0.004
   0.07894737  0.00000000  0.50000000       0.004
   0.10526316  0.00000000  0.50000000       0.004
   0.13157895  0.00000000  0.50000000       0.004
   0.15789474  0.00000000  0.50000000       0.004
   0.18421053  0.00000000  0.50000000       0.004
   0.21052632  0.00000000  0.50000000       0.004
   0.23684211  0.00000000  0.50000000       0.004
   0.26315789  0.00000000  0.50000000       0.004
   0.28947368  0.00000000  0.50000000       0.004
   0.31578947  0.00000000  0.50000000       0.004
   0.34210526  0.00000000  0.50000000       0.004
   0.36842105  0.00000000  0.50000000       0.004
   0.39473684  0.00000000  0.50000000       0.004
   0.42105263  0.00000000  0.50000000       0.004
   0.44736842  0.00000000  0.50000000       0.004
   0.47368421  0.00000000  0.50000000       0.004
   0.50000000  0.00000000  0.50000000       0.004
   0.50000000  0.00000000  0.50000000       0.004
   0.50000000  0.02631579  0.50000000       0.004
   0.50000000  0.05263158  0.50000000       0.004
   0.50000000  0.07894737  0.50000000       0.004
   0.50000000  0.10526316  0.50000000       0.004
   0.50000000  0.13157895  0.50000000       0.004
   0.50000000  0.15789474  0.50000000       0.004
   0.50000000  0.18421053  0.50000000       0.004
   0.50000000  0.21052632  0.50000000       0.004
   0.50000000  0.23684211  0.50000000       0.004
   0.50000000  0.26315789  0.50000000       0.004
   0.50000000  0.28947368  0.50000000       0.004
   0.50000000  0.31578947  0.50000000       0.004
   0.50000000  0.34210526  0.50000000       0.004
   0.50000000  0.36842105  0.50000000       0.004
   0.50000000  0.39473684  0.50000000       0.004
   0.50000000  0.42105263  0.50000000       0.004
   0.50000000  0.44736842  0.50000000       0.004
   0.50000000  0.47368421  0.50000000       0.004
   0.50000000  0.50000000  0.50000000       0.004
   0.50000000  0.50000000  0.50000000       0.004
   0.47368421  0.50000000  0.50000000       0.004
   0.44736842  0.50000000  0.50000000       0.004
   0.42105263  0.50000000  0.50000000       0.004
   0.39473684  0.50000000  0.50000000       0.004
   0.36842105  0.50000000  0.50000000       0.004
   0.34210526  0.50000000  0.50000000       0.004
   0.31578947  0.50000000  0.50000000       0.004
   0.28947368  0.50000000  0.50000000       0.004
   0.26315789  0.50000000  0.50000000       0.004
   0.23684211  0.50000000  0.50000000       0.004
   0.21052632  0.50000000  0.50000000       0.004
   0.18421053  0.50000000  0.50000000       0.004
   0.15789474  0.50000000  0.50000000       0.004
   0.13157895  0.50000000  0.50000000       0.004
   0.10526316  0.50000000  0.50000000       0.004
   0.07894737  0.50000000  0.50000000       0.004
   0.05263158  0.50000000  0.50000000       0.004
   0.02631579  0.50000000  0.50000000       0.004
   0.00000000  0.50000000  0.50000000       0.004
   0.00000000  0.50000000  0.50000000       0.004
   0.00000000  0.47368421  0.50000000       0.004
   0.00000000  0.44736842  0.50000000       0.004
   0.00000000  0.42105263  0.50000000       0.004
   0.00000000  0.39473684  0.50000000       0.004
   0.00000000  0.36842105  0.50000000       0.004
   0.00000000  0.34210526  0.50000000       0.004
   0.00000000  0.31578947  0.50000000       0.004
   0.00000000  0.28947368  0.50000000       0.004
   0.00000000  0.26315789  0.50000000       0.004
   0.00000000  0.23684211  0.50000000       0.004
   0.00000000  0.21052632  0.50000000       0.004
   0.00000000  0.18421053  0.50000000       0.004
   0.00000000  0.15789474  0.50000000       0.004
   0.00000000  0.13157895  0.50000000       0.004
   0.00000000  0.10526316  0.50000000       0.004
   0.00000000  0.07894737  0.50000000       0.004
   0.00000000  0.05263158  0.50000000       0.004
   0.00000000  0.02631579  0.50000000       0.004
   0.00000000  0.00000000  0.50000000       0.004
   0.50000000  0.00000000  0.00000000       0.004
   0.50000000  0.00000000  0.02631579       0.004
   0.50000000  0.00000000  0.05263158       0.004
   0.50000000  0.00000000  0.07894737       0.004
   0.50000000  0.00000000  0.10526316       0.004
   0.50000000  0.00000000  0.13157895       0.004
   0.50000000  0.00000000  0.15789474       0.004
   0.50000000  0.00000000  0.18421053       0.004
   0.50000000  0.00000000  0.21052632       0.004
   0.50000000  0.00000000  0.23684211       0.004
   0.50000000  0.00000000  0.26315789       0.004
   0.50000000  0.00000000  0.28947368       0.004
   0.50000000  0.00000000  0.31578947       0.004
   0.50000000  0.00000000  0.34210526       0.004
   0.50000000  0.00000000  0.36842105       0.004
   0.50000000  0.00000000  0.39473684       0.004
   0.50000000  0.00000000  0.42105263       0.004
   0.50000000  0.00000000  0.44736842       0.004
   0.50000000  0.00000000  0.47368421       0.004
   0.50000000  0.00000000  0.50000000       0.004
   0.00000000  0.50000000  0.00000000       0.004
   0.00000000  0.50000000  0.02631579       0.004
   0.00000000  0.50000000  0.05263158       0.004
   0.00000000  0.50000000  0.07894737       0.004
   0.00000000  0.50000000  0.10526316       0.004
   0.00000000  0.50000000  0.13157895       0.004
   0.00000000  0.50000000  0.15789474       0.004
   0.00000000  0.50000000  0.18421053       0.004
   0.00000000  0.50000000  0.21052632       0.004
   0.00000000  0.50000000  0.23684211       0.004
   0.00000000  0.50000000  0.26315789       0.004
   0.00000000  0.50000000  0.28947368       0.004
   0.00000000  0.50000000  0.31578947       0.004
   0.00000000  0.50000000  0.34210526       0.004
   0.00000000  0.50000000  0.36842105       0.004
   0.00000000  0.50000000  0.39473684       0.004
   0.00000000  0.50000000  0.42105263       0.004
   0.00000000  0.50000000  0.44736842       0.004
   0.00000000  0.50000000  0.47368421       0.004
   0.00000000  0.50000000  0.50000000       0.004
   0.50000000  0.50000000  0.00000000       0.004
   0.50000000  0.50000000  0.02631579       0.004
   0.50000000  0.50000000  0.05263158       0.004
   0.50000000  0.50000000  0.07894737       0.004
   0.50000000  0.50000000  0.10526316       0.004
   0.50000000  0.50000000  0.13157895       0.004
   0.50000000  0.50000000  0.15789474       0.004
   0.50000000  0.50000000  0.18421053       0.004
   0.50000000  0.50000000  0.21052632       0.004
   0.50000000  0.50000000  0.23684211       0.004
   0.50000000  0.50000000  0.26315789       0.004
   0.50000000  0.50000000  0.28947368       0.004
   0.50000000  0.50000000  0.31578947       0.004
   0.50000000  0.50000000  0.34210526       0.004
   0.50000000  0.50000000  0.36842105       0.004
   0.50000000  0.50000000  0.39473684       0.004
   0.50000000  0.50000000  0.42105263       0.004
   0.50000000  0.50000000  0.44736842       0.004
   0.50000000  0.50000000  0.47368421       0.004
   0.50000000  0.50000000  0.50000000       0.004
 
 position of ions in fractional coordinates (direct lattice) 
   0.16093925  0.25000000  0.43901396
   0.83906069  0.74999998  0.56098601
   0.33906073  0.74999998  0.93901404
   0.66093927  0.25000000  0.06098604
   0.15991708  0.25000000  0.00198253
   0.84008297  0.74999998  0.99801747
   0.34008292  0.74999998  0.50198258
   0.65991708  0.25000000  0.49801747
   0.30023202  0.25000000  0.28497898
   0.69976796  0.74999998  0.71502104
   0.19976798  0.74999998  0.78497896
   0.80023204  0.25000000  0.21502102
   0.03388179  0.25000000  0.61372837
   0.96611821  0.74999998  0.38627166
   0.46611821  0.74999998  0.11372841
   0.53388179  0.25000000  0.88627163
   0.41713102  0.25000000  0.67193047
   0.58286898  0.74999998  0.32806953
   0.08286900  0.74999998  0.17193047
   0.91713102  0.25000000  0.82806953
 
 position of ions in cartesian coordinates  (Angst):
   1.67927241  1.19762504  7.79732680
   8.75492729  3.59287500  9.96367240
   3.53782761  3.59287500 16.67782808
   6.89637268  1.19762504  1.08317304
   1.66860682  1.19762504  0.03521166
   8.76559394  3.59287500 17.72578804
   3.54849332  3.59287500  8.91571244
   6.88570696  1.19762504  8.84528820
   3.13268102  1.19762504  5.06151162
   7.30151903  3.59287500 12.69948852
   2.08441913  3.59287500 13.94201100
   8.34978140  1.19762504  3.81898822
   0.35352936  1.19762504 10.90042934
  10.08067087  3.59287500  6.86057082
   4.86357072  3.59287500  2.01993021
   5.57062956  1.19762504 15.74107018
   4.35242856  1.19762504 11.93415683
   6.08177173  3.59287500  5.82684285
   0.86467176  3.59287500  3.05365699
   9.56952870  1.19762504 14.70734269
 
 Euler angles ALPHA=     0.0000000  BETA=     0.0000000

 transformation matrix from SAXIS to cartesian coordinates
 ---------------------------------------------------------
     1.0000000 m_x     0.0000000 m_y     0.0000000 m_z
     0.0000000 m_x     1.0000000 m_y     0.0000000 m_z
     0.0000000 m_x     0.0000000 m_y     1.0000000 m_z

 transformation matrix from cartesian coordinates to SAXIS
 ---------------------------------------------------------
     1.0000000 m_x     0.0000000 m_y     0.0000000 m_z
     0.0000000 m_x     1.0000000 m_y     0.0000000 m_z
     0.0000000 m_x     0.0000000 m_y     1.0000000 m_z




--------------------------------------------------------------------------------------------------------


 k-point  1 :   0.0000 0.0000 0.0000  plane waves:   38554
 k-point  2 :   0.0263 0.0000 0.0000  plane waves:   38550
 k-point  3 :   0.0526 0.0000 0.0000  plane waves:   38584
 k-point  4 :   0.0789 0.0000 0.0000  plane waves:   38552
 k-point  5 :   0.1053 0.0000 0.0000  plane waves:   38524
 k-point  6 :   0.1316 0.0000 0.0000  plane waves:   38540
 k-point  7 :   0.1579 0.0000 0.0000  plane waves:   38496
 k-point  8 :   0.1842 0.0000 0.0000  plane waves:   38508
 k-point  9 :   0.2105 0.0000 0.0000  plane waves:   38500
 k-point 10 :   0.2368 0.0000 0.0000  plane waves:   38516
 k-point 11 :   0.2632 0.0000 0.0000  plane waves:   38532
 k-point 12 :   0.2895 0.0000 0.0000  plane waves:   38480
 k-point 13 :   0.3158 0.0000 0.0000  plane waves:   38508
 k-point 14 :   0.3421 0.0000 0.0000  plane waves:   38532
 k-point 15 :   0.3684 0.0000 0.0000  plane waves:   38500
 k-point 16 :   0.3947 0.0000 0.0000  plane waves:   38480
 k-point 17 :   0.4211 0.0000 0.0000  plane waves:   38496
 k-point 18 :   0.4474 0.0000 0.0000  plane waves:   38456
 k-point 19 :   0.4737 0.0000 0.0000  plane waves:   38488
 k-point 20 :   0.5000 0.0000 0.0000  plane waves:   38480
 k-point 21 :   0.5000 0.0000 0.0000  plane waves:   38480
 k-point 22 :   0.5000 0.0263 0.0000  plane waves:   38452
 k-point 23 :   0.5000 0.0526 0.0000  plane waves:   38416
 k-point 24 :   0.5000 0.0789 0.0000  plane waves:   38476
 k-point 25 :   0.5000 0.1053 0.0000  plane waves:   38492
 k-point 26 :   0.5000 0.1316 0.0000  plane waves:   38524
 k-point 27 :   0.5000 0.1579 0.0000  plane waves:   38524
 k-point 28 :   0.5000 0.1842 0.0000  plane waves:   38508
 k-point 29 :   0.5000 0.2105 0.0000  plane waves:   38504
 k-point 30 :   0.5000 0.2368 0.0000  plane waves:   38520
 k-point 31 :   0.5000 0.2632 0.0000  plane waves:   38492
 k-point 32 :   0.5000 0.2895 0.0000  plane waves:   38532
 k-point 33 :   0.5000 0.3158 0.0000  plane waves:   38504
 k-point 34 :   0.5000 0.3421 0.0000  plane waves:   38528
 k-point 35 :   0.5000 0.3684 0.0000  plane waves:   38532
 k-point 36 :   0.5000 0.3947 0.0000  plane waves:   38520
 k-point 37 :   0.5000 0.4211 0.0000  plane waves:   38480
 k-point 38 :   0.5000 0.4474 0.0000  plane waves:   38520
 k-point 39 :   0.5000 0.4737 0.0000  plane waves:   38500
 k-point 40 :   0.5000 0.5000 0.0000  plane waves:   38512
 k-point 41 :   0.5000 0.5000 0.0000  plane waves:   38512
 k-point 42 :   0.4737 0.5000 0.0000  plane waves:   38532
 k-point 43 :   0.4474 0.5000 0.0000  plane waves:   38492
 k-point 44 :   0.4211 0.5000 0.0000  plane waves:   38460
 k-point 45 :   0.3947 0.5000 0.0000  plane waves:   38492
 k-point 46 :   0.3684 0.5000 0.0000  plane waves:   38532
 k-point 47 :   0.3421 0.5000 0.0000  plane waves:   38528
 k-point 48 :   0.3158 0.5000 0.0000  plane waves:   38492
 k-point 49 :   0.2895 0.5000 0.0000  plane waves:   38476
 k-point 50 :   0.2632 0.5000 0.0000  plane waves:   38452
 k-point 51 :   0.2368 0.5000 0.0000  plane waves:   38416
 k-point 52 :   0.2105 0.5000 0.0000  plane waves:   38416
 k-point 53 :   0.1842 0.5000 0.0000  plane waves:   38424
 k-point 54 :   0.1579 0.5000 0.0000  plane waves:   38448
 k-point 55 :   0.1316 0.5000 0.0000  plane waves:   38420
 k-point 56 :   0.1053 0.5000 0.0000  plane waves:   38460
 k-point 57 :   0.0789 0.5000 0.0000  plane waves:   38484
 k-point 58 :   0.0526 0.5000 0.0000  plane waves:   38476
 k-point 59 :   0.0263 0.5000 0.0000  plane waves:   38492
 k-point 60 :   0.0000 0.5000 0.0000  plane waves:   38488
 k-point 61 :   0.0000 0.5000 0.0000  plane waves:   38488
 k-point 62 :   0.0000 0.4737 0.0000  plane waves:   38476
 k-point 63 :   0.0000 0.4474 0.0000  plane waves:   38508
 k-point 64 :   0.0000 0.4211 0.0000  plane waves:   38516
 k-point 65 :   0.0000 0.3947 0.0000  plane waves:   38512
 k-point 66 :   0.0000 0.3684 0.0000  plane waves:   38500
 k-point 67 :   0.0000 0.3421 0.0000  plane waves:   38456
 k-point 68 :   0.0000 0.3158 0.0000  plane waves:   38472
 k-point 69 :   0.0000 0.2895 0.0000  plane waves:   38460
 k-point 70 :   0.0000 0.2632 0.0000  plane waves:   38454
 k-point 71 :   0.0000 0.2368 0.0000  plane waves:   38390
 k-point 72 :   0.0000 0.2105 0.0000  plane waves:   38410
 k-point 73 :   0.0000 0.1842 0.0000  plane waves:   38374
 k-point 74 :   0.0000 0.1579 0.0000  plane waves:   38422
 k-point 75 :   0.0000 0.1316 0.0000  plane waves:   38446
 k-point 76 :   0.0000 0.1053 0.0000  plane waves:   38498
 k-point 77 :   0.0000 0.0789 0.0000  plane waves:   38510
 k-point 78 :   0.0000 0.0526 0.0000  plane waves:   38530
 k-point 79 :   0.0000 0.0263 0.0000  plane waves:   38550
 k-point 80 :   0.0000 0.0000 0.0000  plane waves:   38554
 k-point 81 :   0.0000 0.0000 0.0000  plane waves:   38554
 k-point 82 :   0.0000 0.0000 0.0263  plane waves:   38550
 k-point 83 :   0.0000 0.0000 0.0526  plane waves:   38566
 k-point 84 :   0.0000 0.0000 0.0789  plane waves:   38522
 k-point 85 :   0.0000 0.0000 0.1053  plane waves:   38538
 k-point 86 :   0.0000 0.0000 0.1316  plane waves:   38522
 k-point 87 :   0.0000 0.0000 0.1579  plane waves:   38538
 k-point 88 :   0.0000 0.0000 0.1842  plane waves:   38522
 k-point 89 :   0.0000 0.0000 0.2105  plane waves:   38490
 k-point 90 :   0.0000 0.0000 0.2368  plane waves:   38482
 k-point 91 :   0.0000 0.0000 0.2632  plane waves:   38474
 k-point 92 :   0.0000 0.0000 0.2895  plane waves:   38484
 k-point 93 :   0.0000 0.0000 0.3158  plane waves:   38452
 k-point 94 :   0.0000 0.0000 0.3421  plane waves:   38456
 k-point 95 :   0.0000 0.0000 0.3684  plane waves:   38448
 k-point 96 :   0.0000 0.0000 0.3947  plane waves:   38472
 k-point 97 :   0.0000 0.0000 0.4211  plane waves:   38456
 k-point 98 :   0.0000 0.0000 0.4474  plane waves:   38472
 k-point 99 :   0.0000 0.0000 0.4737  plane waves:   38480
 k-point ** :   0.0000 0.0000 0.5000  plane waves:   38500
 k-point ** :   0.0000 0.0000 0.5000  plane waves:   38500
 k-point ** :   0.0263 0.0000 0.5000  plane waves:   38460
 k-point ** :   0.0526 0.0000 0.5000  plane waves:   38452
 k-point ** :   0.0789 0.0000 0.5000  plane waves:   38392
 k-point ** :   0.1053 0.0000 0.5000  plane waves:   38412
 k-point ** :   0.1316 0.0000 0.5000  plane waves:   38464
 k-point ** :   0.1579 0.0000 0.5000  plane waves:   38444
 k-point ** :   0.1842 0.0000 0.5000  plane waves:   38448
 k-point ** :   0.2105 0.0000 0.5000  plane waves:   38480
 k-point ** :   0.2368 0.0000 0.5000  plane waves:   38472
 k-point ** :   0.2632 0.0000 0.5000  plane waves:   38520
 k-point ** :   0.2895 0.0000 0.5000  plane waves:   38504
 k-point ** :   0.3158 0.0000 0.5000  plane waves:   38552
 k-point ** :   0.3421 0.0000 0.5000  plane waves:   38552
 k-point ** :   0.3684 0.0000 0.5000  plane waves:   38584
 k-point ** :   0.3947 0.0000 0.5000  plane waves:   38580
 k-point ** :   0.4211 0.0000 0.5000  plane waves:   38588
 k-point ** :   0.4474 0.0000 0.5000  plane waves:   38544
 k-point ** :   0.4737 0.0000 0.5000  plane waves:   38560
 k-point ** :   0.5000 0.0000 0.5000  plane waves:   38560
 k-point ** :   0.5000 0.0000 0.5000  plane waves:   38560
 k-point ** :   0.5000 0.0263 0.5000  plane waves:   38552
 k-point ** :   0.5000 0.0526 0.5000  plane waves:   38568
 k-point ** :   0.5000 0.0789 0.5000  plane waves:   38536
 k-point ** :   0.5000 0.1053 0.5000  plane waves:   38520
 k-point ** :   0.5000 0.1316 0.5000  plane waves:   38504
 k-point ** :   0.5000 0.1579 0.5000  plane waves:   38536
 k-point ** :   0.5000 0.1842 0.5000  plane waves:   38536
 k-point ** :   0.5000 0.2105 0.5000  plane waves:   38552
 k-point ** :   0.5000 0.2368 0.5000  plane waves:   38512
 k-point ** :   0.5000 0.2632 0.5000  plane waves:   38496
 k-point ** :   0.5000 0.2895 0.5000  plane waves:   38472
 k-point ** :   0.5000 0.3158 0.5000  plane waves:   38456
 k-point ** :   0.5000 0.3421 0.5000  plane waves:   38440
 k-point ** :   0.5000 0.3684 0.5000  plane waves:   38424
 k-point ** :   0.5000 0.3947 0.5000  plane waves:   38488
 k-point ** :   0.5000 0.4211 0.5000  plane waves:   38488
 k-point ** :   0.5000 0.4474 0.5000  plane waves:   38472
 k-point ** :   0.5000 0.4737 0.5000  plane waves:   38488
 k-point ** :   0.5000 0.5000 0.5000  plane waves:   38512
 k-point ** :   0.5000 0.5000 0.5000  plane waves:   38512
 k-point ** :   0.4737 0.5000 0.5000  plane waves:   38496
 k-point ** :   0.4474 0.5000 0.5000  plane waves:   38528
 k-point ** :   0.4211 0.5000 0.5000  plane waves:   38472
 k-point ** :   0.3947 0.5000 0.5000  plane waves:   38488
 k-point ** :   0.3684 0.5000 0.5000  plane waves:   38496
 k-point ** :   0.3421 0.5000 0.5000  plane waves:   38464
 k-point ** :   0.3158 0.5000 0.5000  plane waves:   38488
 k-point ** :   0.2895 0.5000 0.5000  plane waves:   38488
 k-point ** :   0.2632 0.5000 0.5000  plane waves:   38512
 k-point ** :   0.2368 0.5000 0.5000  plane waves:   38504
 k-point ** :   0.2105 0.5000 0.5000  plane waves:   38520
 k-point ** :   0.1842 0.5000 0.5000  plane waves:   38544
 k-point ** :   0.1579 0.5000 0.5000  plane waves:   38528
 k-point ** :   0.1316 0.5000 0.5000  plane waves:   38552
 k-point ** :   0.1053 0.5000 0.5000  plane waves:   38544
 k-point ** :   0.0789 0.5000 0.5000  plane waves:   38512
 k-point ** :   0.0526 0.5000 0.5000  plane waves:   38488
 k-point ** :   0.0263 0.5000 0.5000  plane waves:   38464
 k-point ** :   0.0000 0.5000 0.5000  plane waves:   38536
 k-point ** :   0.0000 0.5000 0.5000  plane waves:   38536
 k-point ** :   0.0000 0.4737 0.5000  plane waves:   38480
 k-point ** :   0.0000 0.4474 0.5000  plane waves:   38504
 k-point ** :   0.0000 0.4211 0.5000  plane waves:   38448
 k-point ** :   0.0000 0.3947 0.5000  plane waves:   38468
 k-point ** :   0.0000 0.3684 0.5000  plane waves:   38444
 k-point ** :   0.0000 0.3421 0.5000  plane waves:   38408
 k-point ** :   0.0000 0.3158 0.5000  plane waves:   38400
 k-point ** :   0.0000 0.2895 0.5000  plane waves:   38380
 k-point ** :   0.0000 0.2632 0.5000  plane waves:   38420
 k-point ** :   0.0000 0.2368 0.5000  plane waves:   38440
 k-point ** :   0.0000 0.2105 0.5000  plane waves:   38432
 k-point ** :   0.0000 0.1842 0.5000  plane waves:   38444
 k-point ** :   0.0000 0.1579 0.5000  plane waves:   38448
 k-point ** :   0.0000 0.1316 0.5000  plane waves:   38504
 k-point ** :   0.0000 0.1053 0.5000  plane waves:   38468
 k-point ** :   0.0000 0.0789 0.5000  plane waves:   38488
 k-point ** :   0.0000 0.0526 0.5000  plane waves:   38480
 k-point ** :   0.0000 0.0263 0.5000  plane waves:   38464
 k-point ** :   0.0000 0.0000 0.5000  plane waves:   38500
 k-point ** :   0.5000 0.0000 0.0000  plane waves:   38480
 k-point ** :   0.5000 0.0000 0.0263  plane waves:   38484
 k-point ** :   0.5000 0.0000 0.0526  plane waves:   38476
 k-point ** :   0.5000 0.0000 0.0789  plane waves:   38464
 k-point ** :   0.5000 0.0000 0.1053  plane waves:   38492
 k-point ** :   0.5000 0.0000 0.1316  plane waves:   38504
 k-point ** :   0.5000 0.0000 0.1579  plane waves:   38516
 k-point ** :   0.5000 0.0000 0.1842  plane waves:   38496
 k-point ** :   0.5000 0.0000 0.2105  plane waves:   38512
 k-point ** :   0.5000 0.0000 0.2368  plane waves:   38512
 k-point ** :   0.5000 0.0000 0.2632  plane waves:   38536
 k-point ** :   0.5000 0.0000 0.2895  plane waves:   38548
 k-point ** :   0.5000 0.0000 0.3158  plane waves:   38564
 k-point ** :   0.5000 0.0000 0.3421  plane waves:   38564
 k-point ** :   0.5000 0.0000 0.3684  plane waves:   38572
 k-point ** :   0.5000 0.0000 0.3947  plane waves:   38548
 k-point ** :   0.5000 0.0000 0.4211  plane waves:   38540
 k-point ** :   0.5000 0.0000 0.4474  plane waves:   38540
 k-point ** :   0.5000 0.0000 0.4737  plane waves:   38540
 k-point ** :   0.5000 0.0000 0.5000  plane waves:   38560
 k-point ** :   0.0000 0.5000 0.0000  plane waves:   38488
 k-point ** :   0.0000 0.5000 0.0263  plane waves:   38492
 k-point ** :   0.0000 0.5000 0.0526  plane waves:   38488
 k-point ** :   0.0000 0.5000 0.0789  plane waves:   38508
 k-point ** :   0.0000 0.5000 0.1053  plane waves:   38532
 k-point ** :   0.0000 0.5000 0.1316  plane waves:   38548
 k-point ** :   0.0000 0.5000 0.1579  plane waves:   38528
 k-point ** :   0.0000 0.5000 0.1842  plane waves:   38528
 k-point ** :   0.0000 0.5000 0.2105  plane waves:   38540
 k-point ** :   0.0000 0.5000 0.2368  plane waves:   38544
 k-point ** :   0.0000 0.5000 0.2632  plane waves:   38544
 k-point ** :   0.0000 0.5000 0.2895  plane waves:   38532
 k-point ** :   0.0000 0.5000 0.3158  plane waves:   38540
 k-point ** :   0.0000 0.5000 0.3421  plane waves:   38528
 k-point ** :   0.0000 0.5000 0.3684  plane waves:   38504
 k-point ** :   0.0000 0.5000 0.3947  plane waves:   38512
 k-point ** :   0.0000 0.5000 0.4211  plane waves:   38504
 k-point ** :   0.0000 0.5000 0.4474  plane waves:   38520
 k-point ** :   0.0000 0.5000 0.4737  plane waves:   38504
 k-point ** :   0.0000 0.5000 0.5000  plane waves:   38536
 k-point ** :   0.5000 0.5000 0.0000  plane waves:   38512
 k-point ** :   0.5000 0.5000 0.0263  plane waves:   38520
 k-point ** :   0.5000 0.5000 0.0526  plane waves:   38488
 k-point ** :   0.5000 0.5000 0.0789  plane waves:   38480
 k-point ** :   0.5000 0.5000 0.1053  plane waves:   38440
 k-point ** :   0.5000 0.5000 0.1316  plane waves:   38440
 k-point ** :   0.5000 0.5000 0.1579  plane waves:   38424
 k-point ** :   0.5000 0.5000 0.1842  plane waves:   38424
 k-point ** :   0.5000 0.5000 0.2105  plane waves:   38408
 k-point ** :   0.5000 0.5000 0.2368  plane waves:   38424
 k-point ** :   0.5000 0.5000 0.2632  plane waves:   38448
 k-point ** :   0.5000 0.5000 0.2895  plane waves:   38472
 k-point ** :   0.5000 0.5000 0.3158  plane waves:   38448
 k-point ** :   0.5000 0.5000 0.3421  plane waves:   38480
 k-point ** :   0.5000 0.5000 0.3684  plane waves:   38448
 k-point ** :   0.5000 0.5000 0.3947  plane waves:   38472
 k-point ** :   0.5000 0.5000 0.4211  plane waves:   38504
 k-point ** :   0.5000 0.5000 0.4474  plane waves:   38504
 k-point ** :   0.5000 0.5000 0.4737  plane waves:   38488
 k-point ** :   0.5000 0.5000 0.5000  plane waves:   38512

 maximum and minimum number of plane-waves per node :     38588    38374

 maximum number of plane-waves:     38588
 maximum index in each direction: 
   IXMAX=   18   IYMAX=    8   IZMAX=   30
   IXMIN=  -18   IYMIN=   -8   IZMIN=  -31


 serial   3D FFT for wavefunctions
 parallel 3D FFT for charge:
    minimum data exchange during FFTs selected (reduces bandwidth)


 total amount of memory used by VASP MPI-rank0  2970650. kBytes
=======================================================================

   base      :      30000. kBytes
   nonl-proj :    2006784. kBytes
   fftplans  :       3347. kBytes
   grid      :      26845. kBytes
   one-center:       1244. kBytes
   wavefun   :     902430. kBytes
 
     INWAV:  cpu time   94.3567: real time   94.5649
 initial charge density was supplied:
 number of electron     176.0000052 magnetization       0.0005138     -0.0001305      0.0003424
 keeping initial charge density in first step


--------------------------------------------------------------------------------------------------------


 Maximum index for augmentation-charges          560 (set IRDMAX)


--------------------------------------------------------------------------------------------------------


 First call to EWALD:  gamma=   0.184
 Maximum number of real-space cells 3x 5x 2
 Maximum number of reciprocal cells 3x 2x 5

    FEWALD:  cpu time    0.0030: real time    0.0066


--------------------------------------- Iteration      1(   1)  ---------------------------------------


    POTLOK:  cpu time    0.1840: real time    0.2235
    SETDIJ:  cpu time    0.0370: real time    0.0465
     EDDAV:  cpu time  447.5190: real time  448.9396
       DOS:  cpu time    0.0370: real time    0.0438
    --------------------------------------------
      LOOP:  cpu time  447.7769: real time  449.2535

 eigenvalue-minimisations  :128952
 total energy-change (2. order) :-0.4813631E+02  (-0.9296174E+02)
 number of electron     176.0000052 magnetization       0.0005138     -0.0001305      0.0003424
 augmentation part      176.0000052 magnetization       0.0005138     -0.0001305      0.0003424

 Free energy of the ion-electron system (eV)
  ---------------------------------------------------
  alpha Z        PSCENC =       296.55173223
  Ewald energy   TEWEN  =     -8963.34988360
  -Hartree energ DENC   =     -3441.34848755
  -exchange      EXHF   =         0.00000000
  -V(xc)+E(xc)   XCENC  =        36.47995930
  PAW double counting   =     12727.87733588   -12316.80243530
  entropy T*S    EENTRO =         0.02182731
  eigenvalues    EBANDS =     -1047.13833342
  atomic energy  EATOM  =     12659.57197118
  Solvation  Ediel_sol  =         0.00000000
  ---------------------------------------------------
  free energy    TOTEN  =       -48.13631397 eV

  energy without entropy =      -48.15814128  energy(sigma->0) =      -48.14358974


--------------------------------------------------------------------------------------------------------




--------------------------------------- Iteration      1(   2)  ---------------------------------------


     EDDAV:  cpu time  433.8510: real time  434.8450
       DOS:  cpu time    0.0360: real time    0.0364
    --------------------------------------------
      LOOP:  cpu time  433.8870: real time  434.8814

 eigenvalue-minimisations  :123120
 total energy-change (2. order) :-0.1161561E+02  (-0.1157197E+02)
 number of electron     176.0000052 magnetization       0.0005138     -0.0001305      0.0003424
 augmentation part      176.0000052 magnetization       0.0005138     -0.0001305      0.0003424

 Free energy of the ion-electron system (eV)
  ---------------------------------------------------
  alpha Z        PSCENC =       296.55173223
  Ewald energy   TEWEN  =     -8963.34988360
  -Hartree energ DENC   =     -3441.34848755
  -exchange      EXHF   =         0.00000000
  -V(xc)+E(xc)   XCENC  =        36.47995930
  PAW double counting   =     12727.87733588   -12316.80243530
  entropy T*S    EENTRO =         0.03715618
  eigenvalues    EBANDS =     -1058.76926993
  atomic energy  EATOM  =     12659.57197118
  Solvation  Ediel_sol  =         0.00000000
  ---------------------------------------------------
  free energy    TOTEN  =       -59.75192161 eV

  energy without entropy =      -59.78907780  energy(sigma->0) =      -59.76430701


--------------------------------------------------------------------------------------------------------




--------------------------------------- Iteration      1(   3)  ---------------------------------------


     EDDAV:  cpu time  526.3380: real time  527.5581
       DOS:  cpu time    0.0360: real time    0.0363
    --------------------------------------------
      LOOP:  cpu time  526.3750: real time  527.5944

 eigenvalue-minimisations  :155304
 total energy-change (2. order) :-0.4231191E+00  (-0.4229309E+00)
 number of electron     176.0000052 magnetization       0.0005138     -0.0001305      0.0003424
 augmentation part      176.0000052 magnetization       0.0005138     -0.0001305      0.0003424

 Free energy of the ion-electron system (eV)
  ---------------------------------------------------
  alpha Z        PSCENC =       296.55173223
  Ewald energy   TEWEN  =     -8963.34988360
  -Hartree energ DENC   =     -3441.34848755
  -exchange      EXHF   =         0.00000000
  -V(xc)+E(xc)   XCENC  =        36.47995930
  PAW double counting   =     12727.87733588   -12316.80243530
  entropy T*S    EENTRO =         0.03719919
  eigenvalues    EBANDS =     -1059.19243200
  atomic energy  EATOM  =     12659.57197118
  Solvation  Ediel_sol  =         0.00000000
  ---------------------------------------------------
  free energy    TOTEN  =       -60.17504067 eV

  energy without entropy =      -60.21223986  energy(sigma->0) =      -60.18744040


--------------------------------------------------------------------------------------------------------




--------------------------------------- Iteration      1(   4)  ---------------------------------------


     EDDAV:  cpu time  475.3907: real time  476.5220
       DOS:  cpu time    0.0350: real time    0.0359
    --------------------------------------------
      LOOP:  cpu time  475.4257: real time  476.5579

 eigenvalue-minimisations  :137808
 total energy-change (2. order) :-0.7481809E-02  (-0.7481223E-02)
 number of electron     176.0000052 magnetization       0.0005138     -0.0001305      0.0003424
 augmentation part      176.0000052 magnetization       0.0005138     -0.0001305      0.0003424

 Free energy of the ion-electron system (eV)
  ---------------------------------------------------
  alpha Z        PSCENC =       296.55173223
  Ewald energy   TEWEN  =     -8963.34988360
  -Hartree energ DENC   =     -3441.34848755
  -exchange      EXHF   =         0.00000000
  -V(xc)+E(xc)   XCENC  =        36.47995930
  PAW double counting   =     12727.87733588   -12316.80243530
  entropy T*S    EENTRO =         0.03720161
  eigenvalues    EBANDS =     -1059.19991622
  atomic energy  EATOM  =     12659.57197118
  Solvation  Ediel_sol  =         0.00000000
  ---------------------------------------------------
  free energy    TOTEN  =       -60.18252248 eV

  energy without entropy =      -60.21972408  energy(sigma->0) =      -60.19492301


--------------------------------------------------------------------------------------------------------




[...]
 l=   3
     0.0000000     0.0000000     0.0000000     0.0000000     0.0000000     0.0000000     0.0000000
     0.0000000     0.0000000     0.0000000     0.0000000     0.0000000     0.0000000     0.0000000
     0.0000000     0.0000000     0.0000000     0.0000000     0.0000000     0.0000000     0.0000000
     0.0000000     0.0000000     0.0000000     0.0000000     0.0000000     0.0000000     0.0000000
     0.0000000     0.0000000     0.0000000     0.0000000     0.0000000     0.0000000     0.0000000
     0.0000000     0.0000000     0.0000000     0.0000000     0.0000000     0.0000000     0.0000000
     0.0000000     0.0000000     0.0000000     0.0000000     0.0000000     0.0000000     0.0000000

 Ion:   10  E_soc:     -0.2683860
 l=   1
     0.0000000    -0.0453842    -0.0422762
    -0.0453842     0.0000000    -0.0465308
    -0.0422762    -0.0465308     0.0000000
 l=   2
     0.0000000    -0.0000023     0.0000000     0.0000005    -0.0000059
    -0.0000023     0.0000000     0.0000006    -0.0000000    -0.0000005
     0.0000000     0.0000006     0.0000000     0.0000059     0.0000000
     0.0000005    -0.0000000     0.0000059     0.0000000    -0.0000001
    -0.0000059    -0.0000005     0.0000000    -0.0000001     0.0000000
 l=   3
     0.0000000     0.0000000     0.0000000     0.0000000     0.0000000     0.0000000     0.0000000
     0.0000000     0.0000000     0.0000000     0.0000000     0.0000000     0.0000000     0.0000000
     0.0000000     0.0000000     0.0000000     0.0000000     0.0000000     0.0000000     0.0000000
     0.0000000     0.0000000     0.0000000     0.0000000     0.0000000     0.0000000     0.0000000
     0.0000000     0.0000000     0.0000000     0.0000000     0.0000000     0.0000000     0.0000000
     0.0000000     0.0000000     0.0000000     0.0000000     0.0000000     0.0000000     0.0000000
     0.0000000     0.0000000     0.0000000     0.0000000     0.0000000     0.0000000     0.0000000

 Ion:   11  E_soc:     -0.2683858
 l=   1
     0.0000000    -0.0453841    -0.0422762
    -0.0453841     0.0000000    -0.0465307
    -0.0422762    -0.0465307     0.0000000
 l=   2
     0.0000000    -0.0000023     0.0000000     0.0000005    -0.0000059
    -0.0000023     0.0000000     0.0000006    -0.0000000    -0.0000005
     0.0000000     0.0000006     0.0000000     0.0000059     0.0000000
     0.0000005    -0.0000000     0.0000059     0.0000000    -0.0000001
    -0.0000059    -0.0000005     0.0000000    -0.0000001     0.0000000
 l=   3
     0.0000000     0.0000000     0.0000000     0.0000000     0.0000000     0.0000000     0.0000000
     0.0000000     0.0000000     0.0000000     0.0000000     0.0000000     0.0000000     0.0000000
     0.0000000     0.0000000     0.0000000     0.0000000     0.0000000     0.0000000     0.0000000
     0.0000000     0.0000000     0.0000000     0.0000000     0.0000000     0.0000000     0.0000000
     0.0000000     0.0000000     0.0000000     0.0000000     0.0000000     0.0000000     0.0000000
     0.0000000     0.0000000     0.0000000     0.0000000     0.0000000     0.0000000     0.0000000
     0.0000000     0.0000000     0.0000000     0.0000000     0.0000000     0.0000000     0.0000000

 Ion:   12  E_soc:     -0.2683858
 l=   1
     0.0000000    -0.0453841    -0.0422762
    -0.0453841     0.0000000    -0.0465307
    -0.0422762    -0.0465307     0.0000000
 l=   2
     0.0000000    -0.0000023     0.0000000     0.0000005    -0.0000059
    -0.0000023     0.0000000     0.0000006    -0.0000000    -0.0000005
     0.0000000     0.0000006     0.0000000     0.0000059     0.0000000
     0.0000005    -0.0000000     0.0000059     0.0000000    -0.0000001
    -0.0000059    -0.0000005     0.0000000    -0.0000001     0.0000000
 l=   3
     0.0000000     0.0000000     0.0000000     0.0000000     0.0000000     0.0000000     0.0000000
     0.0000000     0.0000000     0.0000000     0.0000000     0.0000000     0.0000000     0.0000000
     0.0000000     0.0000000     0.0000000     0.0000000     0.0000000     0.0000000     0.0000000
     0.0000000     0.0000000     0.0000000     0.0000000     0.0000000     0.0000000     0.0000000
     0.0000000     0.0000000     0.0000000     0.0000000     0.0000000     0.0000000     0.0000000
     0.0000000     0.0000000     0.0000000     0.0000000     0.0000000     0.0000000     0.0000000
     0.0000000     0.0000000     0.0000000     0.0000000     0.0000000     0.0000000     0.0000000

 Ion:   13  E_soc:     -0.2679356
 l=   1
     0.0000000    -0.0449856    -0.0432868
    -0.0449856     0.0000000    -0.0457076
    -0.0432868    -0.0457076     0.0000000
 l=   2
     0.0000000     0.0000009     0.0000000     0.0000073     0.0000013
     0.0000009     0.0000000     0.0000013    -0.0000006    -0.0000031
     0.0000000     0.0000013     0.0000000     0.0000099     0.0000000
     0.0000073    -0.0000006     0.0000099     0.0000000    -0.0000049
     0.0000013    -0.0000031     0.0000000    -0.0000049     0.0000000
 l=   3
     0.0000000     0.0000000     0.0000000     0.0000000     0.0000000     0.0000000     0.0000000
     0.0000000     0.0000000     0.0000000     0.0000000     0.0000000     0.0000000     0.0000000
     0.0000000     0.0000000     0.0000000     0.0000000     0.0000000     0.0000000     0.0000000
     0.0000000     0.0000000     0.0000000     0.0000000     0.0000000     0.0000000     0.0000000
     0.0000000     0.0000000     0.0000000     0.0000000     0.0000000     0.0000000     0.0000000
     0.0000000     0.0000000     0.0000000     0.0000000     0.0000000     0.0000000     0.0000000
     0.0000000     0.0000000     0.0000000     0.0000000     0.0000000     0.0000000     0.0000000

 Ion:   14  E_soc:     -0.2679356
 l=   1
     0.0000000    -0.0449856    -0.0432868
    -0.0449856     0.0000000    -0.0457076
    -0.0432868    -0.0457076     0.0000000
 l=   2
     0.0000000     0.0000009     0.0000000     0.0000073     0.0000013
     0.0000009     0.0000000     0.0000013    -0.0000006    -0.0000031
     0.0000000     0.0000013     0.0000000     0.0000099     0.0000000
     0.0000073    -0.0000006     0.0000099     0.0000000    -0.0000049
     0.0000013    -0.0000031     0.0000000    -0.0000049     0.0000000
 l=   3
     0.0000000     0.0000000     0.0000000     0.0000000     0.0000000     0.0000000     0.0000000
     0.0000000     0.0000000     0.0000000     0.0000000     0.0000000     0.0000000     0.0000000
     0.0000000     0.0000000     0.0000000     0.0000000     0.0000000     0.0000000     0.0000000
     0.0000000     0.0000000     0.0000000     0.0000000     0.0000000     0.0000000     0.0000000
     0.0000000     0.0000000     0.0000000     0.0000000     0.0000000     0.0000000     0.0000000
     0.0000000     0.0000000     0.0000000     0.0000000     0.0000000     0.0000000     0.0000000
     0.0000000     0.0000000     0.0000000     0.0000000     0.0000000     0.0000000     0.0000000

 Ion:   15  E_soc:     -0.2679356
 l=   1
     0.0000000    -0.0449856    -0.0432868
    -0.0449856     0.0000000    -0.0457076
    -0.0432868    -0.0457076     0.0000000
 l=   2
     0.0000000     0.0000009     0.0000000     0.0000073     0.0000013
     0.0000009     0.0000000     0.0000013    -0.0000006    -0.0000031
     0.0000000     0.0000013     0.0000000     0.0000099     0.0000000
     0.0000073    -0.0000006     0.0000099     0.0000000    -0.0000049
     0.0000013    -0.0000031     0.0000000    -0.0000049     0.0000000
 l=   3
     0.0000000     0.0000000     0.0000000     0.0000000     0.0000000     0.0000000     0.0000000
     0.0000000     0.0000000     0.0000000     0.0000000     0.0000000     0.0000000     0.0000000
     0.0000000     0.0000000     0.0000000     0.0000000     0.0000000     0.0000000     0.0000000
     0.0000000     0.0000000     0.0000000     0.0000000     0.0000000     0.0000000     0.0000000
     0.0000000     0.0000000     0.0000000     0.0000000     0.0000000     0.0000000     0.0000000
     0.0000000     0.0000000     0.0000000     0.0000000     0.0000000     0.0000000     0.0000000
     0.0000000     0.0000000     0.0000000     0.0000000     0.0000000     0.0000000     0.0000000

 Ion:   16  E_soc:     -0.2679356
 l=   1
     0.0000000    -0.0449856    -0.0432868
    -0.0449856     0.0000000    -0.0457076
    -0.0432868    -0.0457076     0.0000000
 l=   2
     0.0000000     0.0000009     0.0000000     0.0000073     0.0000013
     0.0000009     0.0000000     0.0000013    -0.0000006    -0.0000031
     0.0000000     0.0000013     0.0000000     0.0000099     0.0000000
     0.0000073    -0.0000006     0.0000099     0.0000000    -0.0000049
     0.0000013    -0.0000031     0.0000000    -0.0000049     0.0000000
 l=   3
     0.0000000     0.0000000     0.0000000     0.0000000     0.0000000     0.0000000     0.0000000
     0.0000000     0.0000000     0.0000000     0.0000000     0.0000000     0.0000000     0.0000000
     0.0000000     0.0000000     0.0000000     0.0000000     0.0000000     0.0000000     0.0000000
     0.0000000     0.0000000     0.0000000     0.0000000     0.0000000     0.0000000     0.0000000
     0.0000000     0.0000000     0.0000000     0.0000000     0.0000000     0.0000000     0.0000000
     0.0000000     0.0000000     0.0000000     0.0000000     0.0000000     0.0000000     0.0000000
     0.0000000     0.0000000     0.0000000     0.0000000     0.0000000     0.0000000     0.0000000

 Ion:   17  E_soc:     -0.2843891
 l=   1
     0.0000000    -0.0473416    -0.0473767
    -0.0473416     0.0000000    -0.0472642
    -0.0473767    -0.0472642     0.0000000
 l=   2
     0.0000000    -0.0000217     0.0000000    -0.0000168    -0.0000622
    -0.0000217     0.0000000    -0.0000425    -0.0000146    -0.0000106
     0.0000000    -0.0000425     0.0000000    -0.0000339     0.0000000
    -0.0000168    -0.0000146    -0.0000339     0.0000000    -0.0000096
    -0.0000622    -0.0000106     0.0000000    -0.0000096     0.0000000
 l=   3
     0.0000000     0.0000000     0.0000000     0.0000000     0.0000000     0.0000000     0.0000000
     0.0000000     0.0000000     0.0000000     0.0000000     0.0000000     0.0000000     0.0000000
     0.0000000     0.0000000     0.0000000     0.0000000     0.0000000     0.0000000     0.0000000
     0.0000000     0.0000000     0.0000000     0.0000000     0.0000000     0.0000000     0.0000000
     0.0000000     0.0000000     0.0000000     0.0000000     0.0000000     0.0000000     0.0000000
     0.0000000     0.0000000     0.0000000     0.0000000     0.0000000     0.0000000     0.0000000
     0.0000000     0.0000000     0.0000000     0.0000000     0.0000000     0.0000000     0.0000000

 Ion:   18  E_soc:     -0.2843891
 l=   1
     0.0000000    -0.0473416    -0.0473767
    -0.0473416     0.0000000    -0.0472642
    -0.0473767    -0.0472642     0.0000000
 l=   2
     0.0000000    -0.0000217     0.0000000    -0.0000168    -0.0000622
    -0.0000217     0.0000000    -0.0000425    -0.0000146    -0.0000106
     0.0000000    -0.0000425     0.0000000    -0.0000339     0.0000000
    -0.0000168    -0.0000146    -0.0000339     0.0000000    -0.0000096
    -0.0000622    -0.0000106     0.0000000    -0.0000096     0.0000000
 l=   3
     0.0000000     0.0000000     0.0000000     0.0000000     0.0000000     0.0000000     0.0000000
     0.0000000     0.0000000     0.0000000     0.0000000     0.0000000     0.0000000     0.0000000
     0.0000000     0.0000000     0.0000000     0.0000000     0.0000000     0.0000000     0.0000000
     0.0000000     0.0000000     0.0000000     0.0000000     0.0000000     0.0000000     0.0000000
     0.0000000     0.0000000     0.0000000     0.0000000     0.0000000     0.0000000     0.0000000
     0.0000000     0.0000000     0.0000000     0.0000000     0.0000000     0.0000000     0.0000000
     0.0000000     0.0000000     0.0000000     0.0000000     0.0000000     0.0000000     0.0000000

 Ion:   19  E_soc:     -0.2843891
 l=   1
     0.0000000    -0.0473416    -0.0473767
    -0.0473416     0.0000000    -0.0472642
    -0.0473767    -0.0472642     0.0000000
 l=   2
     0.0000000    -0.0000217     0.0000000    -0.0000168    -0.0000622
    -0.0000217     0.0000000    -0.0000425    -0.0000146    -0.0000106
     0.0000000    -0.0000425     0.0000000    -0.0000339     0.0000000
    -0.0000168    -0.0000146    -0.0000339     0.0000000    -0.0000096
    -0.0000622    -0.0000106     0.0000000    -0.0000096     0.0000000
 l=   3
     0.0000000     0.0000000     0.0000000     0.0000000     0.0000000     0.0000000     0.0000000
     0.0000000     0.0000000     0.0000000     0.0000000     0.0000000     0.0000000     0.0000000
     0.0000000     0.0000000     0.0000000     0.0000000     0.0000000     0.0000000     0.0000000
     0.0000000     0.0000000     0.0000000     0.0000000     0.0000000     0.0000000     0.0000000
     0.0000000     0.0000000     0.0000000     0.0000000     0.0000000     0.0000000     0.0000000
     0.0000000     0.0000000     0.0000000     0.0000000     0.0000000     0.0000000     0.0000000
     0.0000000     0.0000000     0.0000000     0.0000000     0.0000000     0.0000000     0.0000000

 Ion:   20  E_soc:     -0.2843891
 l=   1
     0.0000000    -0.0473416    -0.0473767
    -0.0473416     0.0000000    -0.0472642
    -0.0473767    -0.0472642     0.0000000
 l=   2
     0.0000000    -0.0000217     0.0000000    -0.0000168    -0.0000622
    -0.0000217     0.0000000    -0.0000425    -0.0000146    -0.0000106
     0.0000000    -0.0000425     0.0000000    -0.0000339     0.0000000
    -0.0000168    -0.0000146    -0.0000339     0.0000000    -0.0000096
    -0.0000622    -0.0000106     0.0000000    -0.0000096     0.0000000
 l=   3
     0.0000000     0.0000000     0.0000000     0.0000000     0.0000000     0.0000000     0.0000000
     0.0000000     0.0000000     0.0000000     0.0000000     0.0000000     0.0000000     0.0000000
     0.0000000     0.0000000     0.0000000     0.0000000     0.0000000     0.0000000     0.0000000
     0.0000000     0.0000000     0.0000000     0.0000000     0.0000000     0.0000000     0.0000000
     0.0000000     0.0000000     0.0000000     0.0000000     0.0000000     0.0000000     0.0000000
     0.0000000     0.0000000     0.0000000     0.0000000     0.0000000     0.0000000     0.0000000
     0.0000000     0.0000000     0.0000000     0.0000000     0.0000000     0.0000000     0.0000000
 


 total charge     
 
# of ion       s       p       d       tot
------------------------------------------
    1        1.489   0.502   9.838  11.829
    2        1.489   0.502   9.838  11.829
    3        1.489   0.502   9.838  11.829
    4        1.489   0.502   9.838  11.829
    5        1.508   2.798   0.008   4.314
    6        1.508   2.798   0.008   4.314
    7        1.508   2.798   0.008   4.314
    8        1.508   2.798   0.008   4.314
    9        1.504   2.814   0.006   4.324
   10        1.504   2.814   0.006   4.324
   11        1.504   2.814   0.006   4.324
   12        1.504   2.814   0.006   4.324
   13        1.510   2.784   0.009   4.303
   14        1.510   2.784   0.009   4.303
   15        1.510   2.784   0.009   4.303
   16        1.510   2.784   0.009   4.303
   17        1.843   4.703   0.029   6.576
   18        1.843   4.703   0.029   6.576
   19        1.843   4.703   0.029   6.576
   20        1.843   4.703   0.029   6.576
--------------------------------------------------
tot         31.418  54.406  39.557 125.382
 


 magnetization (x)
 
# of ion       s       p       d       tot
------------------------------------------
    1        0.000   0.000   0.000   0.000
    2       -0.000  -0.000  -0.000  -0.000
    3        0.000   0.000   0.000   0.000
    4       -0.000  -0.000  -0.000  -0.000
    5        0.000   0.000  -0.000   0.000
    6       -0.000  -0.000   0.000  -0.000
    7        0.000   0.000  -0.000   0.000
    8       -0.000  -0.000   0.000  -0.000
    9       -0.000   0.000   0.000   0.000
   10        0.000  -0.000  -0.000  -0.000
   11       -0.000   0.000   0.000   0.000
   12        0.000  -0.000  -0.000  -0.000
   13        0.000  -0.000  -0.000  -0.000
   14       -0.000   0.000   0.000   0.000
   15        0.000  -0.000  -0.000  -0.000
   16       -0.000   0.000   0.000   0.000
   17        0.000   0.000  -0.000   0.000
   18       -0.000  -0.000   0.000  -0.000
   19        0.000   0.000  -0.000   0.000
   20       -0.000  -0.000   0.000  -0.000
--------------------------------------------------
tot         -0.000  -0.000   0.000  -0.000
 


 magnetization (y)
 
# of ion       s       p       d       tot
------------------------------------------
    1        0.000   0.000  -0.000   0.000
    2       -0.000  -0.000   0.000  -0.000
    3        0.000   0.000  -0.000   0.000
    4       -0.000  -0.000   0.000  -0.000
    5        0.000   0.000   0.000   0.000
    6       -0.000  -0.000  -0.000  -0.000
    7        0.000   0.000   0.000   0.000
    8       -0.000  -0.000  -0.000  -0.000
    9        0.000   0.000   0.000   0.000
   10       -0.000  -0.000  -0.000  -0.000
   11        0.000   0.000   0.000   0.000
   12       -0.000  -0.000  -0.000  -0.000
   13       -0.000  -0.000  -0.000  -0.000
   14        0.000   0.000   0.000   0.000
   15       -0.000  -0.000  -0.000  -0.000
   16        0.000   0.000   0.000   0.000
   17        0.000  -0.000  -0.000  -0.000
   18       -0.000   0.000   0.000   0.000
   19        0.000  -0.000  -0.000  -0.000
   20       -0.000   0.000   0.000   0.000
--------------------------------------------------
tot          0.000  -0.000   0.000  -0.000
 


 magnetization (z)
 
# of ion       s       p       d       tot
------------------------------------------
    1        0.000   0.000  -0.000   0.000
    2       -0.000  -0.000   0.000  -0.000
    3       -0.000  -0.000   0.000  -0.000
    4        0.000   0.000  -0.000   0.000
    5        0.000   0.000  -0.000   0.000
    6       -0.000  -0.000   0.000  -0.000
    7       -0.000  -0.000   0.000  -0.000
    8        0.000   0.000  -0.000   0.000
    9       -0.000   0.000   0.000   0.000
   10        0.000  -0.000  -0.000  -0.000
   11        0.000  -0.000  -0.000  -0.000
   12       -0.000   0.000   0.000   0.000
   13       -0.000  -0.001   0.000  -0.001
   14        0.000   0.001  -0.000   0.001
   15        0.000   0.001  -0.000   0.001
   16       -0.000  -0.001   0.000  -0.001
   17       -0.000  -0.000  -0.000  -0.000
   18        0.000   0.000   0.000   0.000
   19        0.000   0.000   0.000   0.000
   20       -0.000  -0.000  -0.000  -0.000
--------------------------------------------------
tot         -0.000  -0.000   0.000  -0.000
 

 total amount of memory used by VASP MPI-rank0  2970650. kBytes
=======================================================================

   base      :      30000. kBytes
   nonl-proj :    2006784. kBytes
   fftplans  :       3347. kBytes
   grid      :      26845. kBytes
   one-center:       1244. kBytes
   wavefun   :     902430. kBytes
 
  
  
 General timing and accounting informations for this job:
 ========================================================
  
                  Total CPU time used (sec):     3719.495
                            User time (sec):     3395.450
                          System time (sec):      324.045
                         Elapsed time (sec):     3733.381
  
                   Maximum memory used (kb):     2962792.
                   Average memory used (kb):           0.
  
                          Minor page faults:      1157884
                          Major page faults:          417
                 Voluntary context switches:         8242
