 vasp.5.4.4.18Apr17-6-g9f103f2a35 (build Aug 19 2019 13:15:05) complex          
  
 executed on             LinuxIFC date 2020.04.22  09:28:29
 running on  120 total cores
 distrk:  each k-point on  120 cores,    1 groups
 distr:  one band on NCORES_PER_BAND=   1 cores,  120 groups


--------------------------------------------------------------------------------------------------------


 INCAR:
 POTCAR:    PAW_PBE Pb_d 06Sep2000                
 POTCAR:    PAW_PBE I 08Apr2002                   
 POTCAR:    PAW_PBE Cs_sv 08Apr2002               

 ----------------------------------------------------------------------------- 
|                                                                             |
|           W    W    AA    RRRRR   N    N  II  N    N   GGGG   !!!           |
|           W    W   A  A   R    R  NN   N  II  NN   N  G    G  !!!           |
|           W    W  A    A  R    R  N N  N  II  N N  N  G       !!!           |
|           W WW W  AAAAAA  RRRRR   N  N N  II  N  N N  G  GGG   !            |
|           WW  WW  A    A  R   R   N   NN  II  N   NN  G    G                |
|           W    W  A    A  R    R  N    N  II  N    N   GGGG   !!!           |
|                                                                             |
|      For optimal performance we recommend to set                            |
|        NCORE= 4 - approx SQRT( number of cores)                             |
|      NCORE specifies how many cores store one orbital (NPAR=cpu/NCORE).     |
|      This setting can  greatly improve the performance of VASP for DFT.     |
|      The default,   NCORE=1            might be grossly inefficient         |
|      on modern multi-core architectures or massively parallel machines.     |
|      Do your own testing !!!!                                               |
|      Unfortunately you need to use the default for GW and RPA calculations. |
|      (for HF NCORE is supported but not extensively tested yet)             |
|                                                                             |
 ----------------------------------------------------------------------------- 

 POTCAR:    PAW_PBE Pb_d 06Sep2000                
   VRHFIN =Pb:                                                                  
   LEXCH  = PE                                                                  
   EATOM  =  1661.6185 eV,  122.1255 Ry                                         
                                                                                
   TITEL  = PAW_PBE Pb_d 06Sep2000                                              
   LULTRA =        F    use ultrasoft PP ?                                      
   IUNSCR =        1    unscreen: 0-lin 1-nonlin 2-no                           
   RPACOR =    2.200    partial core radius                                     
   POMASS =  207.200; ZVAL   =   14.000    mass and valenz                      
   RCORE  =    2.500    outmost cutoff radius                                   
   RWIGS  =    3.260; RWIGS  =    1.725    wigner-seitz radius (au A)           
   ENMAX  =  237.835; ENMIN  =  178.376 eV                                      
   ICORE  =        3    local potential                                         
   LCOR   =        T    correct aug charges                                     
   LPAW   =        T    paw PP                                                  
   EAUG   =  391.914                                                            
   DEXC   =    0.000                                                            
   RMAX   =    2.565    core radius for proj-oper                               
   RAUG   =    1.300    factor for augmentation sphere                          
   RDEP   =    2.643    radius for radial grids                                 
   RDEPT  =    2.092    core radius for aug-charge                              
                                                                                
   Atomic configuration                                                         
   16 entries                                                                   
     n  l   j            E        occ.                                          
     1  0  0.50    -88091.8466   2.0000                                         
     2  0  0.50    -15753.4197   2.0000                                         
     2  1  1.50    -13508.1797   6.0000                                         
     3  0  0.50     -3781.7194   2.0000                                         
     3  1  1.50     -3138.2529   6.0000                                         
     3  2  2.50     -2483.2977  10.0000                                         
     4  0  0.50      -856.2895   2.0000                                         
     4  1  1.50      -645.4942   6.0000                                         
     4  2  2.50      -401.8768  10.0000                                         
     4  3  3.50      -132.9059  14.0000                                         
     5  0  0.50      -144.0950   2.0000                                         
     5  1  1.50       -85.7879   6.0000                                         
     5  2  2.50       -21.1769  10.0000                                         
     6  0  0.50       -12.0372   2.0000                                         
     6  1  1.50        -3.4971   2.0000                                         
     5  3  2.50        -2.7212   0.0000                                         
   Description                                                                  
     l       E           TYP  RCUT    TYP  RCUT                                 
     2    -21.1768523     23  2.500                                             
     2      1.3605826     23  2.500                                             
     0    -12.0371562     23  2.500                                             
     0     13.6058260     23  2.500                                             
     1     -3.4971339     23  2.500                                             
     1     13.6058260     23  2.500                                             
     3     -1.3605826      7  2.500                                             
  local pseudopotential read in
  partial core-charges read in
  partial kinetic energy density read in
  atomic valenz-charges read in
  non local Contribution for L=           2  read in
    real space projection operators read in
  non local Contribution for L=           2  read in
    real space projection operators read in
  non local Contribution for L=           0  read in
    real space projection operators read in
  non local Contribution for L=           0  read in
    real space projection operators read in
  non local Contribution for L=           1  read in
    real space projection operators read in
  non local Contribution for L=           1  read in
    real space projection operators read in
    PAW grid and wavefunctions read in
 
   number of l-projection  operators is LMAX  =           6
   number of lm-projection operators is LMMAX =          18
 
 POTCAR:    PAW_PBE I 08Apr2002                   
   VRHFIN =I : s2p5                                                             
   LEXCH  = PE                                                                  
   EATOM  =   315.8678 eV,   23.2156 Ry                                         
                                                                                
   TITEL  = PAW_PBE I 08Apr2002                                                 
   LULTRA =        F    use ultrasoft PP ?                                      
   IUNSCR =        1    unscreen: 0-lin 1-nonlin 2-no                           
   RPACOR =    2.200    partial core radius                                     
   POMASS =  126.904; ZVAL   =    7.000    mass and valenz                      
   RCORE  =    2.300    outmost cutoff radius                                   
   RWIGS  =    2.810; RWIGS  =    1.487    wigner-seitz radius (au A)           
   ENMAX  =  175.647; ENMIN  =  131.735 eV                                      
   ICORE  =        3    local potential                                         
   LCOR   =        T    correct aug charges                                     
   LPAW   =        T    paw PP                                                  
   EAUG   =  370.139                                                            
   DEXC   =    0.000                                                            
   RMAX   =    2.359    core radius for proj-oper                               
   RAUG   =    1.300    factor for augmentation sphere                          
   RDEP   =    2.392    radius for radial grids                                 
   RDEPT  =    2.170    core radius for aug-charge                              
                                                                                
   Atomic configuration                                                         
   13 entries                                                                   
     n  l   j            E        occ.                                          
     1  0  0.50    -32976.3739   2.0000                                         
     2  0  0.50     -5094.5933   2.0000                                         
     2  1  1.50     -4572.0131   6.0000                                         
     3  0  0.50     -1028.2813   2.0000                                         
     3  1  1.50      -859.0250   6.0000                                         
     3  2  2.50      -605.7620  10.0000                                         
     4  0  0.50      -180.5540   2.0000                                         
     4  1  1.50      -127.5306   6.0000                                         
     4  2  2.50       -50.2720  10.0000                                         
     5  0  0.50       -17.4058   2.0000                                         
     5  1  0.50        -7.0851   5.0000                                         
     5  2  1.50        -7.0750   0.0000                                         
     4  3  2.50        -7.0750   0.0000                                         
   Description                                                                  
     l       E           TYP  RCUT    TYP  RCUT                                 
     0    -17.4058016     23  2.300                                             
     0    -18.7663842     23  2.300                                             
     1     -7.0850686     23  2.300                                             
     1     -4.2150896     23  2.300                                             
     2     -7.0750295     23  2.300                                             
     3     -1.3605826     23  2.300                                             
  local pseudopotential read in
  partial core-charges read in
  partial kinetic energy density read in
  atomic valenz-charges read in
  non local Contribution for L=           0  read in
    real space projection operators read in
  non local Contribution for L=           0  read in
    real space projection operators read in
  non local Contribution for L=           1  read in
    real space projection operators read in
  non local Contribution for L=           1  read in
    real space projection operators read in
  non local Contribution for L=           2  read in
    real space projection operators read in
    PAW grid and wavefunctions read in
 
   number of l-projection  operators is LMAX  =           5
   number of lm-projection operators is LMMAX =          13
 
 POTCAR:    PAW_PBE Cs_sv 08Apr2002               
   VRHFIN =Cs: 5s5p6s                                                           
   LEXCH  = PE                                                                  
   EATOM  =   555.6835 eV,   40.8416 Ry                                         
                                                                                
   TITEL  = PAW_PBE Cs_sv 08Apr2002                                             
   LULTRA =        F    use ultrasoft PP ?                                      
   IUNSCR =        1    unscreen: 0-lin 1-nonlin 2-no                           
   RPACOR =    2.200    partial core radius                                     
   POMASS =  132.900; ZVAL   =    9.000    mass and valenz                      
   RCORE  =    2.500    outmost cutoff radius                                   
   RWIGS  =    2.500; RWIGS  =    1.323    wigner-seitz radius (au A)           
   ENMAX  =  220.318; ENMIN  =  165.238 eV                                      
   RCLOC  =    2.207    cutoff for local pot                                    
   LCOR   =        T    correct aug charges                                     
   LPAW   =        T    paw PP                                                  
   EAUG   =  407.933                                                            
   DEXC   =    0.000                                                            
   RMAX   =    2.554    core radius for proj-oper                               
   RAUG   =    1.300    factor for augmentation sphere                          
   RDEP   =    2.590    radius for radial grids                                 
   RDEPT  =    2.117    core radius for aug-charge                              
                                                                                
   Atomic configuration                                                         
   13 entries                                                                   
     n  l   j            E        occ.                                          
     1  0  0.50    -35790.1377   2.0000                                         
     2  0  0.50     -5613.6201   2.0000                                         
     2  1  1.50     -5035.0101   6.0000                                         
     3  0  0.50     -1167.0767   2.0000                                         
     3  1  1.50      -980.9754   6.0000                                         
     3  2  2.50      -708.0703  10.0000                                         
     4  0  0.50      -220.2386   2.0000                                         
     4  1  1.50      -160.7596   6.0000                                         
     4  2  2.50       -74.2354  10.0000                                         
     5  0  0.50       -26.7287   2.0000                                         
     6  0  0.50        -2.0862   1.0000                                         
     5  1  1.50       -13.5159   6.0000                                         
     5  2  2.50        -0.4136   0.0000                                         
   Description                                                                  
     l       E           TYP  RCUT    TYP  RCUT                                 
     0    -26.7287425     23  1.900                                             
     0     -2.0862306     23  1.900                                             
     1    -13.5158719     23  2.500                                             
     1     -2.7211652     23  2.500                                             
     2     -0.4136171     23  2.500                                             
  local pseudopotential read in
  partial core-charges read in
  partial kinetic energy density read in
  atomic valenz-charges read in
  non local Contribution for L=           0  read in
    real space projection operators read in
  non local Contribution for L=           0  read in
    real space projection operators read in
  non local Contribution for L=           1  read in
    real space projection operators read in
  non local Contribution for L=           1  read in
    real space projection operators read in
  non local Contribution for L=           2  read in
    real space projection operators read in
    PAW grid and wavefunctions read in
 
   number of l-projection  operators is LMAX  =           5
   number of lm-projection operators is LMMAX =          13
 
 Optimization of the real space projectors (new method)

 maximal supplied QI-value         = 15.12
 optimisation between [QCUT,QGAM] = [ 10.73, 21.62] = [ 32.26,130.87] Ry 
 Optimized for a Real-space Cutoff    1.38 Angstroem

   l    n(q)    QCUT    max X(q) W(low)/X(q) W(high)/X(q)  e(spline) 
   2      8    10.734     3.846    0.42E-03    0.65E-04    0.45E-07
   2      8    10.734     8.593    0.38E-03    0.21E-03    0.11E-06
   0      9    10.734    20.082    0.60E-04    0.15E-03    0.97E-07
   0      9    10.734     8.597    0.89E-04    0.21E-03    0.14E-06
   1      8    10.734    33.223    0.23E-03    0.26E-03    0.11E-06
   1      8    10.734    15.899    0.21E-03    0.24E-03    0.10E-06
 Optimization of the real space projectors (new method)

 maximal supplied QI-value         = 16.25
 optimisation between [QCUT,QGAM] = [ 10.73, 21.61] = [ 32.22,130.83] Ry 
 Optimized for a Real-space Cutoff    1.30 Angstroem

   l    n(q)    QCUT    max X(q) W(low)/X(q) W(high)/X(q)  e(spline) 
   0      8    10.726   194.483    0.28E-03    0.91E-04    0.87E-07
   0      8    10.726   190.334    0.27E-03    0.88E-04    0.85E-07
   1      8    10.726   116.687    0.16E-03    0.48E-03    0.15E-06
   1      8    10.726    88.696    0.16E-03    0.47E-03    0.15E-06
   2      7    10.726     4.877    0.19E-03    0.30E-04    0.27E-07
 Optimization of the real space projectors (new method)

 maximal supplied QI-value         = 15.12
 optimisation between [QCUT,QGAM] = [ 10.73, 21.62] = [ 32.26,130.87] Ry 
 Optimized for a Real-space Cutoff    1.55 Angstroem

   l    n(q)    QCUT    max X(q) W(low)/X(q) W(high)/X(q)  e(spline) 
   0     10    10.734    25.322    0.12E-03    0.12E-04    0.48E-06
   0     10    10.734    99.187    0.12E-03    0.12E-04    0.47E-06
   1     10    10.734    11.761    0.20E-03    0.42E-03    0.27E-06
   1     10    10.734     8.275    0.21E-03    0.46E-03    0.30E-06
   2      9    10.734     3.829    0.32E-03    0.79E-04    0.33E-06
  PAW_PBE Pb_d 06Sep2000                :
 energy of atom  1       EATOM=-1661.6185
 kinetic energy error for atom=    0.0063 (will be added to EATOM!!)
  PAW_PBE I 08Apr2002                   :
 energy of atom  2       EATOM= -315.8678
 kinetic energy error for atom=    0.0010 (will be added to EATOM!!)
  PAW_PBE Cs_sv 08Apr2002               :
 energy of atom  3       EATOM= -555.6835
 kinetic energy error for atom=    0.0031 (will be added to EATOM!!)
 
 
 POSCAR: delta-Cesium_Lead_Iodide                
  positions in direct lattice
  velocities in cartesian coordinates
 exchange correlation table for  LEXCH =        8
   RHO(1)=    0.500       N(1)  =     2000
   RHO(2)=  100.500       N(2)  =     4000
 


--------------------------------------------------------------------------------------------------------


 ion  position               nearest neighbor table
   1  0.161  0.250  0.439-   9 3.10   7 3.24   7 3.24  14 3.28  14 3.28  13 3.37
   2  0.839  0.750  0.561-  10 3.10   8 3.24   8 3.24  13 3.28  13 3.28  14 3.37
   3  0.339  0.750  0.939-  11 3.10   5 3.24   5 3.24  16 3.28  16 3.28  15 3.37
   4  0.661  0.250  0.061-  12 3.10   6 3.24   6 3.24  15 3.28  15 3.28  16 3.37
   5  0.160  0.250  0.002-   3 3.24   3 3.24
   6  0.840  0.750  0.998-   4 3.24   4 3.24
   7  0.340  0.750  0.502-   1 3.24   1 3.24
   8  0.660  0.250  0.498-   2 3.24   2 3.24
   9  0.300  0.250  0.285-   1 3.10
  10  0.700  0.750  0.715-   2 3.10
  11  0.200  0.750  0.785-   3 3.10
  12  0.800  0.250  0.215-   4 3.10
  13  0.034  0.250  0.614-   2 3.28   2 3.28   1 3.37
  14  0.966  0.750  0.386-   1 3.28   1 3.28   2 3.37
  15  0.466  0.750  0.114-   4 3.28   4 3.28   3 3.37
  16  0.534  0.250  0.886-   3 3.28   3 3.28   4 3.37
  17  0.417  0.250  0.672-
  18  0.583  0.750  0.328-
  19  0.083  0.750  0.172-
  20  0.917  0.250  0.828-
 
  LATTYP: Found a simple orthorhombic cell.
 ALAT       =     4.7905001640
 B/A-ratio  =     2.1781024798
 C/A-ratio  =     3.7075459914
  
  Lattice vectors:
  
 A1 = (   0.0000000000,  -4.7905001640,   0.0000000000)
 A2 = ( -10.4342002869,   0.0000000000,   0.0000000000)
 A3 = (   0.0000000000,   0.0000000000, -17.7609996796)


Analysis of symmetry for initial positions (statically):
=====================================================================
 Subroutine PRICEL returns:
 Original cell was already a primitive cell.
 

 Routine SETGRP: Setting up the symmetry group for a 
 simple orthorhombic supercell.


 Subroutine GETGRP returns: Found  8 space group operations
 (whereof  2 operations were pure point group operations)
 out of a pool of  8 trial point group operations.


The static configuration has the point symmetry S_2 .
 The point group associated with its full space group is D_2h.


Analysis of symmetry for dynamics (positions and initial velocities):
=====================================================================
 Subroutine PRICEL returns:
 Original cell was already a primitive cell.
 

 Routine SETGRP: Setting up the symmetry group for a 
 simple orthorhombic supercell.


 Subroutine GETGRP returns: Found  8 space group operations
 (whereof  2 operations were pure point group operations)
 out of a pool of  8 trial point group operations.


The dynamic configuration has the point symmetry S_2 .
 The point group associated with its full space group is D_2h.


 Subroutine INISYM returns: Found  8 space group operations
 (whereof  2 operations are pure point group operations),
 and found     1 'primitive' translations

 
 
 KPOINTS: KPT-Resolved Value to Generate K-Mesh: 0

Automatic generation of k-mesh.
Space group operators:
 irot       det(A)        alpha          n_x          n_y          n_z        tau_x        tau_y        tau_z
    1     1.000000     0.000000     1.000000     0.000000     0.000000     0.000000     0.000000     0.000000
    2    -1.000000     0.000000     1.000000     0.000000     0.000000     0.000000     0.000000     0.000000
    3     1.000000   180.000000     0.000000     0.000000     1.000000    -0.500000    -0.000000    -0.500000
    4    -1.000000   180.000000     0.000000     0.000000     1.000000    -0.500000     0.000000    -0.500000
    5     1.000000   180.000000     1.000000     0.000000     0.000000    -0.500000    -0.500000    -0.500000
    6    -1.000000   180.000000     1.000000     0.000000     0.000000    -0.500000    -0.500000    -0.500000
    7     1.000000   180.000000     0.000000     1.000000     0.000000     0.000000    -0.500000     0.000000
    8    -1.000000   180.000000     0.000000     1.000000     0.000000     0.000000    -0.500000     0.000000
 
 Subroutine IBZKPT returns following result:
 ===========================================
 
 Found      6 irreducible k-points:
 
 Following reciprocal coordinates:
            Coordinates               Weight
  0.000000  0.000000  0.000000      1.000000
  0.500000  0.000000  0.000000      1.000000
  0.000000  0.200000  0.000000      2.000000
  0.500000  0.200000  0.000000      2.000000
  0.000000  0.400000  0.000000      2.000000
  0.500000  0.400000  0.000000      2.000000
 
 Following cartesian coordinates:
            Coordinates               Weight
  0.000000  0.000000  0.000000      1.000000
  0.047919  0.000000  0.000000      1.000000
  0.000000  0.041749  0.000000      2.000000
  0.047919  0.041749  0.000000      2.000000
  0.000000  0.083499  0.000000      2.000000
  0.047919  0.083499  0.000000      2.000000
 
 TETIRR: Found     27 inequivalent tetrahedra from       60
 
 Subroutine IBZKPT_HF returns following result:
 ==============================================
 
 Found     10 k-points in 1st BZ
 the following     10 k-points will be used (e.g. in the exchange kernel)
 Following reciprocal coordinates:   # in IRBZ
  0.000000  0.000000  0.000000    0.10000000   1 t-inv F
  0.500000  0.000000  0.000000    0.10000000   2 t-inv F
  0.000000  0.200000  0.000000    0.10000000   3 t-inv F
  0.500000  0.200000  0.000000    0.10000000   4 t-inv F
  0.000000  0.400000  0.000000    0.10000000   5 t-inv F
  0.500000  0.400000  0.000000    0.10000000   6 t-inv F
  0.000000 -0.200000  0.000000    0.10000000   3 t-inv F
 -0.500000 -0.200000  0.000000    0.10000000   4 t-inv F
  0.000000 -0.400000  0.000000    0.10000000   5 t-inv F
 -0.500000 -0.400000  0.000000    0.10000000   6 t-inv F


--------------------------------------------------------------------------------------------------------




 Dimension of arrays:
   k-points           NKPTS =      6   k-points in BZ     NKDIM =     10   number of bands    NBANDS=    120
   number of dos      NEDOS =   2001   number of ions     NIONS =     20
   non local maximal  LDIM  =      6   non local SUM 2l+1 LMDIM =     18
   total plane-waves  NPLWV = 145152
   max r-space proj   IRMAX =   2620   max aug-charges    IRDMAX=  75852
   dimension x,y,z NGX =    54 NGY =   28 NGZ =   96
   dimension x,y,z NGXF=   108 NGYF=   56 NGZF=  192
   support grid    NGXF=   216 NGYF=  112 NGZF=  384
   ions per type =               4  12   4
   NGX,Y,Z   is equivalent  to a cutoff of   8.60,  9.72,  8.99 a.u.
   NGXF,Y,Z  is equivalent  to a cutoff of  17.21, 19.43, 17.97 a.u.

 SYSTEM =  unknown system                          
 POSCAR =  delta-Cesium_Lead_Iodide                

 Startparameter for this run:
   NWRITE =      2    write-flag & timer
   PREC   = normal    normal or accurate (medium, high low for compatibility)
   ISTART =      1    job   : 0-new  1-cont  2-samecut
   ICHARG =     11    charge: 1-file 2-atom 10-const
   ISPIN  =      1    spin polarized calculation?
   LNONCOLLINEAR =      F non collinear calculations
   LSORBIT =      F    spin-orbit coupling
   INIWAV =      1    electr: 0-lowe 1-rand  2-diag
   LASPH  =      F    aspherical Exc in radial PAW
   METAGGA=      F    non-selfconsistent MetaGGA calc.

 Electronic Relaxation 1
   ENCUT  =  520.0 eV  33.07 Ry    5.75 a.u.  18.05  8.29 30.72*2*pi/ulx,y,z
   ENINI  =  520.0     initial cutoff
   ENAUG  =  407.9 eV  augmentation charge cutoff
   NELM   =     60;   NELMIN=  2; NELMDL=  0     # of ELM steps 
   EDIFF  = 0.1E-05   stopping-criterion for ELM
   LREAL  =      T    real-space projection
   NLSPLINE    = F    spline interpolate recip. space projectors
   LCOMPAT=      F    compatible to vasp.4.4
   GGA_COMPAT  = T    GGA compatible to vasp.4.4-vasp.4.6
   LMAXPAW     = -100 max onsite density
   LMAXMIX     =    2 max onsite mixed and CHGCAR
   VOSKOWN=      0    Vosko Wilk Nusair interpolation
   ROPT   =   -0.00050  -0.00050  -0.00050
 Ionic relaxation
   EDIFFG = 0.1E-04   stopping-criterion for IOM
   NSW    =      0    number of steps for IOM
   NBLOCK =      1;   KBLOCK =      1    inner block; outer block 
   IBRION =     -1    ionic relax: 0-MD 1-quasi-New 2-CG
   NFREE  =      0    steps in history (QN), initial steepest desc. (CG)
   ISIF   =      0    stress and relaxation
   IWAVPR =     10    prediction:  0-non 1-charg 2-wave 3-comb
   ISYM   =      3    0-nonsym 1-usesym 2-fastsym
   LCORR  =      T    Harris-Foulkes like correction to forces

   POTIM  = 0.5000    time-step for ionic-motion
   TEIN   =    0.0    initial temperature
   TEBEG  =    0.0;   TEEND  =   0.0 temperature during run
   SMASS  =  -3.00    Nose mass-parameter (am)
   estimated Nose-frequenzy (Omega)   =  0.10E-29 period in steps =****** mass=  -0.249E-26a.u.
   SCALEE = 1.0000    scale energy and forces
   NPACO  =    256;   APACO  = 16.0  distance and # of slots for P.C.
   PSTRESS=    0.0 pullay stress

  Mass of Ions in am
   POMASS = 207.20126.90132.90
  Ionic Valenz
   ZVAL   =  14.00  7.00  9.00
  Atomic Wigner-Seitz radii
   RWIGS  =  -1.00 -1.00 -1.00
  virtual crystal weights 
   VCA    =   1.00  1.00  1.00
   NELECT =     176.0000    total number of electrons
   NUPDOWN=      -1.0000    fix difference up-down

 DOS related values:
   EMIN   =  10.00;   EMAX   =-10.00  energy-range for DOS
   EFERMI =   0.00
   ISMEAR =    -5;   SIGMA  =   0.05  broadening in eV -4-tet -1-fermi 0-gaus

 Electronic relaxation 2 (details)
   IALGO  =     58    algorithm
   LDIAG  =      T    sub-space diagonalisation (order eigenvalues)
   LSUBROT=      F    optimize rotation matrix (better conditioning)
   TURBO    =      0    0=normal 1=particle mesh
   IRESTART =      0    0=no restart 2=restart with 2 vectors
   NREBOOT  =      0    no. of reboots
   NMIN     =      0    reboot dimension
   EREF     =   0.00    reference energy to select bands
   IMIX   =      4    mixing-type and parameters
     AMIX     =   0.40;   BMIX     =  1.00
     AMIX_MAG =   1.60;   BMIX_MAG =  1.00
     AMIN     =   0.10
     WC   =   100.;   INIMIX=   1;  MIXPRE=   1;  MAXMIX= -45

 Intra band minimization:
   WEIMIN = 0.0000     energy-eigenvalue tresh-hold
   EBREAK =  0.21E-08  absolut break condition
   DEPER  =   0.30     relativ break condition  

   TIME   =   0.40     timestep for ELM

  volume/ion in A,a.u.               =      44.39       299.55
  Fermi-wavevector in a.u.,A,eV,Ry     =   0.954575  1.803885 12.397803  0.911213
  Thomas-Fermi vector in A             =   2.083334
 
 Write flags
   LWAVE        =      F    write WAVECAR
   LDOWNSAMPLE  =      F    k-point downsampling of WAVECAR
   LCHARG       =      F    write CHGCAR
   LVTOT        =      F    write LOCPOT, total local potential
   LVHAR        =      F    write LOCPOT, Hartree potential only
   LELF         =      F    write electronic localiz. function (ELF)
   LORBIT       =     10    0 simple, 1 ext, 2 COOP (PROOUT), +10 PAW based schemes


 Dipole corrections
   LMONO  =      F    monopole corrections only (constant potential shift)
   LDIPOL =      F    correct potential (dipole corrections)
   IDIPOL =      0    1-x, 2-y, 3-z, 4-all directions 
   EPSILON=  1.0000000 bulk dielectric constant

 Exchange correlation treatment:
   GGA     =    --    GGA type
   LEXCH   =     8    internal setting for exchange type
   VOSKOWN=      0    Vosko Wilk Nusair interpolation
   EXXOEP  =     0    0=HF, 1=EXX-LHF (local Hartree Fock) 2=EXX OEP
   LHFCALC =     T    Hartree Fock is set to
   LSYMGRAD=     F    symmetrize gradient (conserves proper symmetry)
   PRECFOCK=normal    Normal, Fast or Accurate (Low or Medium for compatibility)
   LRHFCALC=     F    long range Hartree Fock
   LRSCOR  =     F    long range correlation only (use DFT for short range part)
   LTHOMAS =     F    Thomas Fermi screening in HF
   LMODELHF=     F    short range full HF, long range fraction AEXX
   ENCUT4O =  -1.0   cutoff for four orbital integrals eV
   LMAXFOCK=     4    L truncation for augmentation on plane wave grid
   LMAXFOCKAE=  -1    L truncation for all-electron charge restoration on plane wave grid
   NMAXFOCKAE=   1    number of basis functions for all-electron charge restoration
   LFOCKAEDFT=     F  apply the AE augmentation even for DFT
   NKREDX  =     1    reduce k-point grid by
   NKREDY  =     1    reduce k-point grid by
   NKREDZ  =     1    reduce k-point grid by
   SHIFTRED=     F    shift reduced grid of Gamma
   HFKIDENT=     F    idential grid for each k-point
   ODDONLY =     F    use only odd q-grid points
   EVENONLY=     F    use only even q-grid points
   HFALPHA =   -1.0000 decay constant for conv. correction
   MCALPHA =    0.0000 extent of test-charge in conv. correction in multipole expansion
   AEXX    =    0.2500 exact exchange contribution
   HFSCREEN=    0.2000 screening length (either q_TF or 0.3 A-1)
   HFSCREENC=   0.2000 screening length for correlation (either q_TF or 0.3 A-1)
   HFRCUT  =    0.0000 spherical cutoff for potential kernel
   ALDAX   =    0.7500 LDA exchange part
   AGGAX   =    0.7500 GGA exchange part
   ALDAC   =    1.0000 LDA correlation
   AGGAC   =    1.0000 GGA correlation
   ENCUTFOCK=  -1.0 apply spherical cutoff to Coloumb kernel
   NBANDSGWLOW=     1    first orbital included in HF term
   NBLOCK_FOCK=    64    blocking factor in FOCK_ACC
 Linear response parameters
   LEPSILON=     F    determine dielectric tensor
   LRPA    =     F    only Hartree local field effects (RPA)
   LNABLA  =     F    use nabla operator in PAW spheres
   LVEL    =     F    velocity operator in full k-point grid
   LINTERFAST=   F  fast interpolation
   KINTER  =     0    interpolate to denser k-point grid
   CSHIFT  =0.1000    complex shift for real part using Kramers Kronig
   OMEGAMAX=  -1.0    maximum frequency
   DEG_THRESHOLD= 0.2000000E-02 threshold for treating states as degnerate
   RTIME   =   -0.100 relaxation time in fs
  (WPLASMAI=    0.000 imaginary part of plasma frequency in eV, 0.658/RTIME)
   DFIELD  = 0.0000000 0.0000000 0.0000000 field for delta impulse in time
 
 Orbital magnetization related:
   ORBITALMAG=     F  switch on orbital magnetization
   LCHIMAG   =     F  perturbation theory with respect to B field
   DQ        =  0.001000  dq finite difference perturbation B field
   LLRAUG    =     F  two centre corrections for induced B field



--------------------------------------------------------------------------------------------------------


 Static calculation
 charge density and potential remain constant during run
 non-spin polarized calculation
 Conjugate gradient for all bands (Freysoldt, et al. PRB 79, 241103 (2009))
 preconditioned conjugated gradient   charged. constant during bandupdate  
 perform sub-space diagonalisation
    before iterative eigenvector-optimisation
 no mixing
 using additional bands           32
 real space projection scheme for non local part
 use partial core corrections
 calculate Harris-corrections to forces 
   (improved forces if not selfconsistent)
 use gradient corrections 
 WARNING: stress and forces are not correct
  (second derivative of E(xc) not defined)
 use of overlap-Matrix (Vanderbilt PP)
 Fermi weights with tetrahedron method with Bloechl corrections


--------------------------------------------------------------------------------------------------------


  energy-cutoff  :      450.00
  volume of cell :      887.78
      direct lattice vectors                 reciprocal lattice vectors
    10.434200287  0.000000000  0.000000000     0.095838682  0.000000000  0.000000000
     0.000000000  4.790500164  0.000000000     0.000000000  0.208746470  0.000000000
     0.000000000  0.000000000 17.760999680     0.000000000  0.000000000  0.056303137

  length of vectors
    10.434200287  4.790500164 17.760999680     0.095838682  0.208746470  0.056303137


 
 old parameters found on file WAVECAR:
  energy-cutoff  :      450.00
  volume of cell :      887.78
      direct lattice vectors                 reciprocal lattice vectors
    10.434200287  0.000000000  0.000000000     0.095838682  0.000000000  0.000000000
     0.000000000  4.790500164  0.000000000     0.000000000  0.208746470  0.000000000
     0.000000000  0.000000000 17.760999680     0.000000000  0.000000000  0.056303137

  length of vectors

 
 k-points in units of 2pi/SCALE and weight: KPT-Resolved Value to Generate K-Mesh: 0
   0.00000000  0.00000000  0.00000000       0.100
   0.04791934  0.00000000  0.00000000       0.100
   0.00000000  0.04174929  0.00000000       0.200
   0.04791934  0.04174929  0.00000000       0.200
   0.00000000  0.08349859  0.00000000       0.200
   0.04791934  0.08349859  0.00000000       0.200
 
 k-points in reciprocal lattice and weights: KPT-Resolved Value to Generate K-Mesh: 0
   0.00000000  0.00000000  0.00000000       0.100
   0.50000000  0.00000000  0.00000000       0.100
   0.00000000  0.20000000  0.00000000       0.200
   0.50000000  0.20000000  0.00000000       0.200
   0.00000000  0.40000000  0.00000000       0.200
   0.50000000  0.40000000  0.00000000       0.200
 
 position of ions in fractional coordinates (direct lattice) 
   0.16093925  0.25000000  0.43901396
   0.83906069  0.74999998  0.56098601
   0.33906073  0.74999998  0.93901404
   0.66093927  0.25000000  0.06098604
   0.15991708  0.25000000  0.00198253
   0.84008297  0.74999998  0.99801747
   0.34008292  0.74999998  0.50198258
   0.65991708  0.25000000  0.49801747
   0.30023202  0.25000000  0.28497898
   0.69976796  0.74999998  0.71502104
   0.19976798  0.74999998  0.78497896
   0.80023204  0.25000000  0.21502102
   0.03388179  0.25000000  0.61372837
   0.96611821  0.74999998  0.38627166
   0.46611821  0.74999998  0.11372841
   0.53388179  0.25000000  0.88627163
   0.41713102  0.25000000  0.67193047
   0.58286898  0.74999998  0.32806953
   0.08286900  0.74999998  0.17193047
   0.91713102  0.25000000  0.82806953
 
 position of ions in cartesian coordinates  (Angst):
   1.67927241  1.19762504  7.79732680
   8.75492729  3.59287500  9.96367240
   3.53782761  3.59287500 16.67782808
   6.89637268  1.19762504  1.08317304
   1.66860682  1.19762504  0.03521166
   8.76559394  3.59287500 17.72578804
   3.54849332  3.59287500  8.91571244
   6.88570696  1.19762504  8.84528820
   3.13268102  1.19762504  5.06151162
   7.30151903  3.59287500 12.69948852
   2.08441913  3.59287500 13.94201100
   8.34978140  1.19762504  3.81898822
   0.35352936  1.19762504 10.90042934
  10.08067087  3.59287500  6.86057082
   4.86357072  3.59287500  2.01993021
   5.57062956  1.19762504 15.74107018
   4.35242856  1.19762504 11.93415683
   6.08177173  3.59287500  5.82684285
   0.86467176  3.59287500  3.05365699
   9.56952870  1.19762504 14.70734269
 


--------------------------------------------------------------------------------------------------------


 k-point  1 :   0.0000 0.0000 0.0000  plane waves:   19277
 k-point  2 :   0.5000 0.0000 0.0000  plane waves:   19240
 k-point  3 :   0.0000 0.2000 0.0000  plane waves:   19209
 k-point  4 :   0.5000 0.2000 0.0000  plane waves:   19250
 k-point  5 :   0.0000 0.4000 0.0000  plane waves:   19258
 k-point  6 :   0.5000 0.4000 0.0000  plane waves:   19256

 maximum and minimum number of plane-waves per node :     19277    19209

 maximum number of plane-waves:     19277
 maximum index in each direction: 
   IXMAX=   18   IYMAX=    8   IZMAX=   30
   IXMIN=  -18   IYMIN=   -8   IZMIN=  -30


 serial   3D FFT for wavefunctions
 parallel 3D FFT for charge:
    minimum data exchange during FFTs selected (reduces bandwidth)

 
 Radii for the augmentation spheres in the non-local exchange
 for species   1 augmentation radius   1.443 (default was   1.154)
       energy cutoff for augmentation   1800.0
 for species   2 augmentation radius   1.484 (default was   1.188)
       energy cutoff for augmentation   1800.0
 for species   3 augmentation radius   1.414 (default was   1.131)
       energy cutoff for augmentation   1800.0
 Maximum index for augmentation-charges in exchange         2249
  SETUP_FOCK is finished

 total amount of memory used by VASP MPI-rank0    60234. kBytes
=======================================================================

   base      :      30000. kBytes
   nonlr-proj:      15372. kBytes
   fftplans  :       2167. kBytes
   grid      :       6523. kBytes
   one-center:        311. kBytes
   HF        :        194. kBytes
   wavefun   :       5667. kBytes
 
     INWAV:  cpu time    1.1618: real time    1.1730
 initial charge density was supplied:
 number of electron     176.0000000 magnetization 
 keeping initial charge density in first step


--------------------------------------------------------------------------------------------------------


 Maximum index for non-local projection operator         2494
 BZINTS: Fermi energy:  1.371323;176.000000 electrons
         Band energy:***********;  BLOECHL correction:  0.000000
 Maximum index for augmentation-charges         2160 (set IRDMAX)


--------------------------------------------------------------------------------------------------------


 First call to EWALD:  gamma=   0.184
 Maximum number of real-space cells 3x 5x 2
 Maximum number of reciprocal cells 3x 2x 5

    FEWALD:  cpu time    0.0050: real time    0.0061

 ----------------------------------------------------------------------------- 
|                                                                             |
|           W    W    AA    RRRRR   N    N  II  N    N   GGGG   !!!           |
|           W    W   A  A   R    R  NN   N  II  NN   N  G    G  !!!           |
|           W    W  A    A  R    R  N N  N  II  N N  N  G       !!!           |
|           W WW W  AAAAAA  RRRRR   N  N N  II  N  N N  G  GGG   !            |
|           WW  WW  A    A  R   R   N   NN  II  N   NN  G    G                |
|           W    W  A    A  R    R  N    N  II  N    N   GGGG   !!!           |
|                                                                             |
|      ALGO=A and IALGO=5X tend to fail with the tetrahedron method           |
|      (e.g. Bloechls method ISMEAR=-5 is not variational)                    |
|      please switch to IMSEAR=0-n, except for DOS calculations               |
|      For DOS calculations use IALGO=53 after preconverging with ISMEAR>=0   |
|          I HOPE YOU KNOW, WHAT YOU ARE  DOING                               |
|                                                                             |
 ----------------------------------------------------------------------------- 



--------------------------------------- Iteration      1(   1)  ---------------------------------------


    POTLOK:  cpu time    0.1290: real time    0.1701
    SETDIJ:  cpu time    0.2360: real time    0.2444
    TRIAL :  cpu time  134.9395: real time  135.7918
 BZINTS: Fermi energy:  1.371329;176.000000 electrons
         Band energy:***********;  BLOECHL correction:  0.000000
 BZINTS: Fermi energy:  1.371330;176.000000 electrons
         Band energy:***********;  BLOECHL correction:  0.000000
    CORREC:  cpu time  135.6284: real time  136.2141
    --------------------------------------------
      LOOP:  cpu time  270.9348: real time  272.4263

 eigenvalue-minimisations  :     0
 total energy-change (2. order) :-0.6756329E+02  (-0.3130184E-05)
 number of electron     176.0000000 magnetization 
 augmentation part      176.0000000 magnetization 

 Free energy of the ion-electron system (eV)
  ---------------------------------------------------
  alpha Z        PSCENC =       296.55173223
  Ewald energy   TEWEN  =     -8963.34988360
  -Hartree energ DENC   =     -3439.89634090
  -exchange      EXHF   =       317.52340334
  -V(xc)+E(xc)   XCENC  =        14.04597699
  PAW double counting   =     15603.02033964   -15243.66791535
  entropy T*S    EENTRO =         0.00000000
  eigenvalues    EBANDS =     -1294.12722923
  atomic energy  EATOM  =     12642.33662683
  ---------------------------------------------------
  free energy    TOTEN  =       -67.56329006 eV

  energy without entropy =      -67.56329006  energy(sigma->0) =      -67.56329006
  exchange ACFDT corr.  =        -0.00000000  see jH, gK, PRB 81, 115126


--------------------------------------------------------------------------------------------------------




--------------------------------------- Iteration      1(   2)  ---------------------------------------


    TRIAL :  cpu time  136.4313: real time  136.8294
 BZINTS: Fermi energy:  1.371266;176.000000 electrons
         Band energy:***********;  BLOECHL correction:  0.000000
 BZINTS: Fermi energy:  1.371228;176.000000 electrons
         Band energy:***********;  BLOECHL correction:  0.000000
    CORREC:  cpu time  136.7182: real time  137.2782
    --------------------------------------------
      LOOP:  cpu time  273.1535: real time  274.1194

 eigenvalue-minimisations  :     0
 total energy-change (2. order) :-0.3129951E-05  (-0.1807102E-05)
 number of electron     176.0000000 magnetization 
 augmentation part      176.0000000 magnetization 

 Free energy of the ion-electron system (eV)
  ---------------------------------------------------
  alpha Z        PSCENC =       296.55173223
  Ewald energy   TEWEN  =     -8963.34988360
  -Hartree energ DENC   =     -3439.89634090
  -exchange      EXHF   =       317.52330645
  -V(xc)+E(xc)   XCENC  =        14.04597699
  PAW double counting   =     15603.02033964   -15243.66791535
  entropy T*S    EENTRO =         0.00000000
  eigenvalues    EBANDS =     -1294.12713547
  atomic energy  EATOM  =     12642.33662683
  ---------------------------------------------------
  free energy    TOTEN  =       -67.56329319 eV

  energy without entropy =      -67.56329319  energy(sigma->0) =      -67.56329319
  exchange ACFDT corr.  =        -0.00000000  see jH, gK, PRB 81, 115126


--------------------------------------------------------------------------------------------------------




--------------------------------------- Iteration      1(   3)  ---------------------------------------


    TRIAL :  cpu time  137.2201: real time  137.6038
 BZINTS: Fermi energy:  1.371018;176.000000 electrons
         Band energy:***********;  BLOECHL correction:  0.000000
 BZINTS: Fermi energy:  1.370966;176.000000 electrons
         Band energy:***********;  BLOECHL correction:  0.000000
    CORREC:  cpu time  136.8582: real time  137.2342
    --------------------------------------------
      LOOP:  cpu time  274.0803: real time  274.8475

 eigenvalue-minimisations  :     0
 total energy-change (2. order) :-0.1807020E-05  (-0.3616154E-06)
 number of electron     176.0000000 magnetization 
 augmentation part      176.0000000 magnetization 

 Free energy of the ion-electron system (eV)
  ---------------------------------------------------
  alpha Z        PSCENC =       296.55173223
  Ewald energy   TEWEN  =     -8963.34988360
  -Hartree energ DENC   =     -3439.89634090
  -exchange      EXHF   =       317.52366415
  -V(xc)+E(xc)   XCENC  =        14.04597699
  PAW double counting   =     15603.02033964   -15243.66791535
  entropy T*S    EENTRO =         0.00000000
  eigenvalues    EBANDS =     -1294.12749498
  atomic energy  EATOM  =     12642.33662683
  ---------------------------------------------------
  free energy    TOTEN  =       -67.56329499 eV

  energy without entropy =      -67.56329499  energy(sigma->0) =      -67.56329499
  exchange ACFDT corr.  =        -0.00000000  see jH, gK, PRB 81, 115126


--------------------------------------------------------------------------------------------------------




--------------------------------------- Iteration      1(   4)  ---------------------------------------


    TRIAL :  cpu time  137.8120: real time  138.2017
 BZINTS: Fermi energy:  1.370624;176.000000 electrons
         Band energy:***********;  BLOECHL correction:  0.000000
 BZINTS: Fermi energy:  1.370521;176.000000 electrons
         Band energy:***********;  BLOECHL correction:  0.000000
    CORREC:  cpu time  137.1122: real time  137.4874
    EDDIAG:  cpu time  137.0842: real time  137.4620
    --------------------------------------------
      LOOP:  cpu time  412.0104: real time  413.1594

 eigenvalue-minimisations  :     0
 total energy-change (2. order) :-0.3622226E-06  (-0.1492649E-06)
 number of electron     176.0000000 magnetization 
 augmentation part      176.0000000 magnetization 

 Free energy of the ion-electron system (eV)
  ---------------------------------------------------
  alpha Z        PSCENC =       296.55173223
  Ewald energy   TEWEN  =     -8963.34988360
  -Hartree energ DENC   =     -3439.89634090
  -exchange      EXHF   =       317.52340495
  -V(xc)+E(xc)   XCENC  =        14.04597699
  PAW double counting   =     15603.02033964   -15243.66791535
  entropy T*S    EENTRO =         0.00000000
  eigenvalues    EBANDS =     -1294.12708539
  atomic energy  EATOM  =     12642.33662683
  ---------------------------------------------------
  free energy    TOTEN  =       -67.56329535 eV

  energy without entropy =      -67.56329535  energy(sigma->0) =      -67.56329535
  exchange ACFDT corr.  =        -0.00000000  see jH, gK, PRB 81, 115126


--------------------------------------------------------------------------------------------------------


  average scaling for gradient   0.9105


 average (electrostatic) potential at core
  the test charge radii are     1.1541  1.1875  1.1312
  (the norm of the test charge is              1.0000)
       1 -89.1031       2 -89.1031       3 -89.1032       4 -89.1032       5 -89.0864
       6 -89.0865       7 -89.0865       8 -89.0864       9 -88.8375      10 -88.8376
      11 -88.8376      12 -88.8375      13 -89.2535      14 -89.2535      15 -89.2535
      16 -89.2535      17 -44.9382      18 -44.9382      19 -44.9382      20 -44.9382
 
 
 
 E-fermi :   1.3705     XC(G=0):  -6.6244     alpha+bet : -8.3336


 k-point     1 :       0.0000    0.0000    0.0000
  band No.  band energies     occupation 
      1     -20.5961      2.00000
      2     -20.5956      2.00000
      3     -20.5940      2.00000
      4     -20.5935      2.00000
      5     -16.3808      2.00000
      6     -16.3807      2.00000
      7     -16.3711      2.00000
      8     -16.3710      2.00000
      9     -16.3696      2.00000
     10     -16.3695      2.00000
     11     -16.3681      2.00000
     12     -16.3680      2.00000
     13     -16.3449      2.00000
     14     -16.3448      2.00000
     15     -16.3429      2.00000
     16     -16.3428      2.00000
     17     -16.3312      2.00000
     18     -16.3312      2.00000
     19     -16.3281      2.00000
     20     -16.3281      2.00000
     21     -16.3147      2.00000
     22     -16.3147      2.00000
     23     -16.3092      2.00000
     24     -16.3091      2.00000
     25     -11.5708      2.00000
     26     -11.5383      2.00000
     27     -11.2172      2.00000
     28     -11.1081      2.00000
     29     -11.0635      2.00000
     30     -11.0610      2.00000
     31     -11.0451      2.00000
     32     -11.0024      2.00000
     33     -10.7544      2.00000
     34     -10.7053      2.00000
     35     -10.6989      2.00000
     36     -10.6160      2.00000
     37      -6.4932      2.00000
     38      -6.4928      2.00000
     39      -6.4871      2.00000
     40      -6.4796      2.00000
     41      -6.4482      2.00000
     42      -6.4023      2.00000
     43      -6.3784      2.00000
     44      -6.3748      2.00000
     45      -6.3631      2.00000
     46      -6.3601      2.00000
     47      -6.3597      2.00000
     48      -6.3566      2.00000
     49      -6.0950      2.00000
     50      -6.0618      2.00000
     51      -5.9981      2.00000
     52      -5.8473      2.00000
     53      -1.7448      2.00000
     54      -1.4648      2.00000
     55      -1.0270      2.00000
     56      -0.8417      2.00000
     57      -0.8196      2.00000
     58      -0.7464      2.00000
     59      -0.7214      2.00000
     60      -0.5857      2.00000
     61      -0.5433      2.00000
     62      -0.4487      2.00000
     63      -0.3988      2.00000
     64      -0.3145      2.00000
     65      -0.2077      2.00000
     66      -0.0587      2.00000
     67       0.0241      2.00000
     68       0.0279      2.00000
     69       0.1487      2.00000
     70       0.1666      2.00000
     71       0.1754      2.00000
     72       0.2313      2.00000
     73       0.2347      2.00000
     74       0.2631      2.00000
     75       0.3481      2.00000
     76       0.4109      2.00000
     77       0.4502      2.00000
     78       0.4717      2.00000
     79       0.5205      2.00000
     80       0.5392      2.00000
     81       0.5808      2.00000
     82       0.5957      2.00000
     83       0.6248      2.00000
     84       0.7689      2.00000
     85       0.8360      2.00000
     86       0.8544      2.00000
     87       0.9580      2.00000
     88       1.3021      2.00000
     89       4.7511      0.00000
     90       4.7956      0.00000
     91       4.8292      0.00000
     92       4.8550      0.00000
     93       5.6232      0.00000
     94       5.6788      0.00000
     95       5.7292      0.00000
     96       5.7898      0.00000
     97       5.8624      0.00000
     98       5.8652      0.00000
     99       5.9004      0.00000
    100       6.0453      0.00000
    101       6.4521      0.00000
    102       6.6134      0.00000
    103       7.2581      0.00000
    104       7.3390      0.00000
    105       7.4775      0.00000
    106       7.5535      0.00000
    107       7.5979      0.00000
    108       7.8632      0.00000
    109       7.8956      0.00000
    110       7.9052      0.00000
    111       8.1696      0.00000
    112       8.4980      0.00000
    113       8.6461      0.00000
    114       8.7275      0.00000
    115       8.8058      0.00000
    116       8.9825      0.00000
    117       9.0511      0.00000
    118       9.0524      0.00000
    119       9.0833      0.00000
    120       9.1986      0.00000

 k-point     2 :       0.5000    0.0000    0.0000
  band No.  band energies     occupation 
      1     -20.5951      2.00000
      2     -20.5951      2.00000
      3     -20.5946      2.00000
      4     -20.5946      2.00000
      5     -16.3809      2.00000
      6     -16.3808      2.00000
      7     -16.3711      2.00000
      8     -16.3710      2.00000
      9     -16.3696      2.00000
     10     -16.3695      2.00000
     11     -16.3680      2.00000
     12     -16.3680      2.00000
     13     -16.3449      2.00000
     14     -16.3449      2.00000
     15     -16.3429      2.00000
     16     -16.3428      2.00000
     17     -16.3312      2.00000
     18     -16.3312      2.00000
     19     -16.3281      2.00000
     20     -16.3281      2.00000
     21     -16.3147      2.00000
     22     -16.3147      2.00000
     23     -16.3092      2.00000
     24     -16.3091      2.00000
     25     -11.5141      2.00000
     26     -11.5141      2.00000
     27     -11.2669      2.00000
     28     -11.2669      2.00000
     29     -11.1371      2.00000
     30     -11.1371      2.00000
     31     -10.8790      2.00000
     32     -10.8790      2.00000
     33     -10.7172      2.00000
     34     -10.7172      2.00000
     35     -10.6691      2.00000
     36     -10.6691      2.00000
     37      -6.5103      2.00000
     38      -6.5103      2.00000
     39      -6.4734      2.00000
     40      -6.4734      2.00000
     41      -6.4525      2.00000
     42      -6.4525      2.00000
     43      -6.4067      2.00000
     44      -6.4067      2.00000
     45      -6.3690      2.00000
     46      -6.3690      2.00000
     47      -6.3657      2.00000
     48      -6.3657      2.00000
     49      -6.0808      2.00000
     50      -6.0808      2.00000
     51      -5.8477      2.00000
     52      -5.8476      2.00000
     53      -1.5612      2.00000
     54      -1.5612      2.00000
     55      -0.9368      2.00000
     56      -0.9368      2.00000
     57      -0.7303      2.00000
     58      -0.7303      2.00000
     59      -0.5316      2.00000
     60      -0.5316      2.00000
     61      -0.4720      2.00000
     62      -0.4720      2.00000
     63      -0.4335      2.00000
     64      -0.4335      2.00000
     65      -0.3259      2.00000
     66      -0.3259      2.00000
     67      -0.1401      2.00000
     68      -0.1401      2.00000
     69       0.0689      2.00000
     70       0.0689      2.00000
     71       0.0965      2.00000
     72       0.0965      2.00000
     73       0.3883      2.00000
     74       0.3883      2.00000
     75       0.4179      2.00000
     76       0.4179      2.00000
     77       0.4774      2.00000
     78       0.4774      2.00000
     79       0.6318      2.00000
     80       0.6318      2.00000
     81       0.6642      2.00000
     82       0.6642      2.00000
     83       0.6969      2.00000
     84       0.6969      2.00000
     85       0.7500      2.00000
     86       0.7500      2.00000
     87       1.2999      2.00000
     88       1.2999      2.00000
     89       4.5944      0.00000
     90       4.5944      0.00000
     91       4.8514      0.00000
     92       4.8514      0.00000
     93       5.4981      0.00000
     94       5.4981      0.00000
     95       5.8084      0.00000
     96       5.8084      0.00000
     97       5.8228      0.00000
     98       5.8228      0.00000
     99       6.0437      0.00000
    100       6.0437      0.00000
    101       6.9637      0.00000
    102       6.9637      0.00000
    103       7.1886      0.00000
    104       7.1886      0.00000
    105       7.5952      0.00000
    106       7.5952      0.00000
    107       7.7895      0.00000
    108       7.7895      0.00000
    109       8.0576      0.00000
    110       8.0576      0.00000
    111       8.2984      0.00000
    112       8.2984      0.00000
    113       8.5687      0.00000
    114       8.5689      0.00000
    115       8.8706      0.00000
    116       8.8714      0.00000
    117       8.9946      0.00000
    118       9.0138      0.00000
    119       9.0293      0.00000
    120       9.1038      0.00000

 k-point     3 :       0.0000    0.2000    0.0000
  band No.  band energies     occupation 
      1     -20.5907      2.00000
      2     -20.5903      2.00000
      3     -20.5889      2.00000
      4     -20.5885      2.00000
      5     -16.3822      2.00000
      6     -16.3821      2.00000
      7     -16.3800      2.00000
      8     -16.3800      2.00000
      9     -16.3738      2.00000
     10     -16.3737      2.00000
     11     -16.3649      2.00000
     12     -16.3648      2.00000
     13     -16.3410      2.00000
     14     -16.3409      2.00000
     15     -16.3389      2.00000
     16     -16.3388      2.00000
     17     -16.3309      2.00000
     18     -16.3308      2.00000
     19     -16.3284      2.00000
     20     -16.3284      2.00000
     21     -16.3152      2.00000
     22     -16.3151      2.00000
     23     -16.3108      2.00000
     24     -16.3107      2.00000
     25     -11.4610      2.00000
     26     -11.4319      2.00000
     27     -11.1520      2.00000
     28     -11.0686      2.00000
     29     -10.9965      2.00000
     30     -10.9940      2.00000
     31     -10.9822      2.00000
     32     -10.9426      2.00000
     33     -10.7314      2.00000
     34     -10.7043      2.00000
     35     -10.6950      2.00000
     36     -10.6540      2.00000
     37      -6.4918      2.00000
     38      -6.4874      2.00000
     39      -6.4819      2.00000
     40      -6.4753      2.00000
     41      -6.4636      2.00000
     42      -6.4610      2.00000
     43      -6.4394      2.00000
     44      -6.4373      2.00000
     45      -6.4212      2.00000
     46      -6.4174      2.00000
     47      -6.4029      2.00000
     48      -6.4006      2.00000
     49      -6.2423      2.00000
     50      -6.2125      2.00000
     51      -6.0769      2.00000
     52      -6.0093      2.00000
     53      -1.5762      2.00000
     54      -1.3398      2.00000
     55      -1.2126      2.00000
     56      -1.1890      2.00000
     57      -1.1824      2.00000
     58      -1.1186      2.00000
     59      -0.8119      2.00000
     60      -0.7082      2.00000
     61      -0.7068      2.00000
     62      -0.7055      2.00000
     63      -0.6810      2.00000
     64      -0.6493      2.00000
     65      -0.4414      2.00000
     66      -0.3720      2.00000
     67      -0.3168      2.00000
     68      -0.2041      2.00000
     69       0.0428      2.00000
     70       0.1080      2.00000
     71       0.1486      2.00000
     72       0.1873      2.00000
     73       0.2590      2.00000
     74       0.2659      2.00000
     75       0.3272      2.00000
     76       0.3795      2.00000
     77       0.4097      2.00000
     78       0.4320      2.00000
     79       0.4350      2.00000
     80       0.4781      2.00000
     81       0.5683      2.00000
     82       0.5747      2.00000
     83       0.6961      2.00000
     84       0.7568      2.00000
     85       0.9369      2.00000
     86       1.1054      2.00000
     87       1.2281      2.00000
     88       1.3695      2.00000
     89       5.2308      0.00000
     90       5.2804      0.00000
     91       5.3649      0.00000
     92       5.3764      0.00000
     93       5.4101      0.00000
     94       5.6600      0.00000
     95       5.7241      0.00000
     96       5.7742      0.00000
     97       6.0009      0.00000
     98       6.0170      0.00000
     99       6.0453      0.00000
    100       6.0823      0.00000
    101       7.0680      0.00000
    102       7.2386      0.00000
    103       7.7252      0.00000
    104       7.7644      0.00000
    105       7.8749      0.00000
    106       7.9518      0.00000
    107       7.9771      0.00000
    108       8.0864      0.00000
    109       8.1611      0.00000
    110       8.1668      0.00000
    111       8.2359      0.00000
    112       8.4089      0.00000
    113       8.5386      0.00000
    114       8.5486      0.00000
    115       8.6905      0.00000
    116       8.7673      0.00000
    117       8.8154      0.00000
    118       8.9344      0.00000
    119       9.0387      0.00000
    120       9.1600      0.00000

 k-point     4 :       0.5000    0.2000    0.0000
  band No.  band energies     occupation 
      1     -20.5898      2.00000
      2     -20.5898      2.00000
      3     -20.5894      2.00000
      4     -20.5894      2.00000
      5     -16.3822      2.00000
      6     -16.3821      2.00000
      7     -16.3799      2.00000
      8     -16.3799      2.00000
      9     -16.3738      2.00000
     10     -16.3738      2.00000
     11     -16.3648      2.00000
     12     -16.3648      2.00000
     13     -16.3410      2.00000
     14     -16.3409      2.00000
     15     -16.3389      2.00000
     16     -16.3388      2.00000
     17     -16.3309      2.00000
     18     -16.3308      2.00000
     19     -16.3284      2.00000
     20     -16.3284      2.00000
     21     -16.3152      2.00000
     22     -16.3151      2.00000
     23     -16.3108      2.00000
     24     -16.3107      2.00000
     25     -11.4112      2.00000
     26     -11.4112      2.00000
     27     -11.1836      2.00000
     28     -11.1836      2.00000
     29     -11.0737      2.00000
     30     -11.0737      2.00000
     31     -10.8422      2.00000
     32     -10.8422      2.00000
     33     -10.7095      2.00000
     34     -10.7095      2.00000
     35     -10.6819      2.00000
     36     -10.6819      2.00000
     37      -6.5077      2.00000
     38      -6.5077      2.00000
     39      -6.4891      2.00000
     40      -6.4890      2.00000
     41      -6.4803      2.00000
     42      -6.4803      2.00000
     43      -6.4459      2.00000
     44      -6.4459      2.00000
     45      -6.4403      2.00000
     46      -6.4403      2.00000
     47      -6.4106      2.00000
     48      -6.4106      2.00000
     49      -6.1614      2.00000
     50      -6.1614      2.00000
     51      -6.0257      2.00000
     52      -6.0256      2.00000
     53      -1.5226      2.00000
     54      -1.5226      2.00000
     55      -1.3209      2.00000
     56      -1.3209      2.00000
     57      -1.1867      2.00000
     58      -1.1867      2.00000
     59      -0.8827      2.00000
     60      -0.8827      2.00000
     61      -0.5245      2.00000
     62      -0.5245      2.00000
     63      -0.4416      2.00000
     64      -0.4416      2.00000
     65      -0.2804      2.00000
     66      -0.2804      2.00000
     67      -0.1574      2.00000
     68      -0.1574      2.00000
     69       0.0502      2.00000
     70       0.0502      2.00000
     71       0.1314      2.00000
     72       0.1314      2.00000
     73       0.2943      2.00000
     74       0.2943      2.00000
     75       0.3400      2.00000
     76       0.3400      2.00000
     77       0.4096      2.00000
     78       0.4096      2.00000
     79       0.4990      2.00000
     80       0.4990      2.00000
     81       0.5529      2.00000
     82       0.5529      2.00000
     83       0.5908      2.00000
     84       0.5908      2.00000
     85       0.9420      2.00000
     86       0.9421      2.00000
     87       1.1529      2.00000
     88       1.1529      2.00000
     89       5.4039      0.00000
     90       5.4039      0.00000
     91       5.4837      0.00000
     92       5.4837      0.00000
     93       5.5930      0.00000
     94       5.5930      0.00000
     95       5.6348      0.00000
     96       5.6348      0.00000
     97       6.0012      0.00000
     98       6.0012      0.00000
     99       6.1095      0.00000
    100       6.1095      0.00000
    101       7.4442      0.00000
    102       7.4442      0.00000
    103       7.5007      0.00000
    104       7.5007      0.00000
    105       7.9727      0.00000
    106       7.9727      0.00000
    107       8.0779      0.00000
    108       8.0779      0.00000
    109       8.1615      0.00000
    110       8.1617      0.00000
    111       8.2535      0.00000
    112       8.2535      0.00000
    113       8.5549      0.00000
    114       8.5552      0.00000
    115       8.5911      0.00000
    116       8.5913      0.00000
    117       8.7428      0.00000
    118       8.7437      0.00000
    119       8.9319      0.00000
    120       8.9491      0.00000

 k-point     5 :       0.0000    0.4000    0.0000
  band No.  band energies     occupation 
      1     -20.5819      2.00000
      2     -20.5818      2.00000
      3     -20.5805      2.00000
      4     -20.5804      2.00000
      5     -16.3949      2.00000
      6     -16.3949      2.00000
      7     -16.3945      2.00000
      8     -16.3944      2.00000
      9     -16.3674      2.00000
     10     -16.3673      2.00000
     11     -16.3639      2.00000
     12     -16.3638      2.00000
     13     -16.3337      2.00000
     14     -16.3336      2.00000
     15     -16.3327      2.00000
     16     -16.3326      2.00000
     17     -16.3295      2.00000
     18     -16.3294      2.00000
     19     -16.3288      2.00000
     20     -16.3288      2.00000
     21     -16.3153      2.00000
     22     -16.3152      2.00000
     23     -16.3137      2.00000
     24     -16.3137      2.00000
     25     -11.2038      2.00000
     26     -11.1949      2.00000
     27     -11.0533      2.00000
     28     -11.0446      2.00000
     29     -10.8737      2.00000
     30     -10.8733      2.00000
     31     -10.8631      2.00000
     32     -10.8471      2.00000
     33     -10.7531      2.00000
     34     -10.7362      2.00000
     35     -10.7083      2.00000
     36     -10.7031      2.00000
     37      -6.6498      2.00000
     38      -6.6426      2.00000
     39      -6.5918      2.00000
     40      -6.5800      2.00000
     41      -6.5045      2.00000
     42      -6.4975      2.00000
     43      -6.4894      2.00000
     44      -6.4664      2.00000
     45      -6.4485      2.00000
     46      -6.4311      2.00000
     47      -6.4098      2.00000
     48      -6.4001      2.00000
     49      -6.3976      2.00000
     50      -6.3596      2.00000
     51      -6.3558      2.00000
     52      -6.2468      2.00000
     53      -1.7646      2.00000
     54      -1.7469      2.00000
     55      -1.7147      2.00000
     56      -1.7041      2.00000
     57      -1.2540      2.00000
     58      -1.1815      2.00000
     59      -1.1037      2.00000
     60      -0.9679      2.00000
     61      -0.9382      2.00000
     62      -0.8492      2.00000
     63      -0.7900      2.00000
     64      -0.5947      2.00000
     65      -0.4783      2.00000
     66      -0.3619      2.00000
     67      -0.1393      2.00000
     68      -0.1121      2.00000
     69      -0.0407      2.00000
     70      -0.0215      2.00000
     71       0.1006      2.00000
     72       0.1560      2.00000
     73       0.1820      2.00000
     74       0.1975      2.00000
     75       0.2138      2.00000
     76       0.2168      2.00000
     77       0.2317      2.00000
     78       0.2428      2.00000
     79       0.2763      2.00000
     80       0.4100      2.00000
     81       0.4475      2.00000
     82       0.5335      2.00000
     83       0.5511      2.00000
     84       0.5838      2.00000
     85       0.6414      2.00000
     86       0.8757      2.00000
     87       1.0957      2.00000
     88       1.2823      2.00000
     89       5.4624      0.00000
     90       5.5935      0.00000
     91       5.6369      0.00000
     92       5.7441      0.00000
     93       5.9293      0.00000
     94       5.9876      0.00000
     95       6.0063      0.00000
     96       6.1253      0.00000
     97       6.2832      0.00000
     98       6.2872      0.00000
     99       6.2909      0.00000
    100       6.3174      0.00000
    101       7.5650      0.00000
    102       7.6190      0.00000
    103       7.7053      0.00000
    104       7.7326      0.00000
    105       8.1290      0.00000
    106       8.1820      0.00000
    107       8.2305      0.00000
    108       8.2760      0.00000
    109       8.3693      0.00000
    110       8.3749      0.00000
    111       8.5010      0.00000
    112       8.5521      0.00000
    113       8.6660      0.00000
    114       8.6864      0.00000
    115       8.7664      0.00000
    116       8.8778      0.00000
    117       8.9210      0.00000
    118       8.9712      0.00000
    119       9.0612      0.00000
    120       9.1497      0.00000

 k-point     6 :       0.5000    0.4000    0.0000
  band No.  band energies     occupation 
      1     -20.5812      2.00000
      2     -20.5812      2.00000
      3     -20.5811      2.00000
      4     -20.5811      2.00000
      5     -16.3949      2.00000
      6     -16.3948      2.00000
      7     -16.3944      2.00000
      8     -16.3944      2.00000
      9     -16.3674      2.00000
     10     -16.3674      2.00000
     11     -16.3639      2.00000
     12     -16.3638      2.00000
     13     -16.3336      2.00000
     14     -16.3336      2.00000
     15     -16.3327      2.00000
     16     -16.3326      2.00000
     17     -16.3295      2.00000
     18     -16.3294      2.00000
     19     -16.3288      2.00000
     20     -16.3288      2.00000
     21     -16.3153      2.00000
     22     -16.3152      2.00000
     23     -16.3137      2.00000
     24     -16.3137      2.00000
     25     -11.1830      2.00000
     26     -11.1830      2.00000
     27     -11.0654      2.00000
     28     -11.0654      2.00000
     29     -10.9238      2.00000
     30     -10.9238      2.00000
     31     -10.8043      2.00000
     32     -10.8043      2.00000
     33     -10.7316      2.00000
     34     -10.7315      2.00000
     35     -10.7191      2.00000
     36     -10.7191      2.00000
     37      -6.6363      2.00000
     38      -6.6363      2.00000
     39      -6.5855      2.00000
     40      -6.5855      2.00000
     41      -6.5155      2.00000
     42      -6.5155      2.00000
     43      -6.4906      2.00000
     44      -6.4906      2.00000
     45      -6.4425      2.00000
     46      -6.4425      2.00000
     47      -6.4145      2.00000
     48      -6.4145      2.00000
     49      -6.3448      2.00000
     50      -6.3448      2.00000
     51      -6.3055      2.00000
     52      -6.3055      2.00000
     53      -1.6070      2.00000
     54      -1.6070      2.00000
     55      -1.5481      2.00000
     56      -1.5481      2.00000
     57      -1.2955      2.00000
     58      -1.2955      2.00000
     59      -1.2647      2.00000
     60      -1.2647      2.00000
     61      -1.0576      2.00000
     62      -1.0576      2.00000
     63      -0.6966      2.00000
     64      -0.6966      2.00000
     65      -0.3626      2.00000
     66      -0.3626      2.00000
     67      -0.1585      2.00000
     68      -0.1585      2.00000
     69      -0.0934      2.00000
     70      -0.0934      2.00000
     71       0.0247      2.00000
     72       0.0247      2.00000
     73       0.1584      2.00000
     74       0.1584      2.00000
     75       0.1920      2.00000
     76       0.1920      2.00000
     77       0.2574      2.00000
     78       0.2575      2.00000
     79       0.3786      2.00000
     80       0.3786      2.00000
     81       0.5155      2.00000
     82       0.5155      2.00000
     83       0.5620      2.00000
     84       0.5620      2.00000
     85       1.0857      2.00000
     86       1.0857      2.00000
     87       1.2447      2.00000
     88       1.2447      2.00000
     89       5.4648      0.00000
     90       5.4648      0.00000
     91       5.7015      0.00000
     92       5.7015      0.00000
     93       5.8630      0.00000
     94       5.8630      0.00000
     95       6.0503      0.00000
     96       6.0503      0.00000
     97       6.2446      0.00000
     98       6.2446      0.00000
     99       6.3149      0.00000
    100       6.3149      0.00000
    101       7.6916      0.00000
    102       7.6916      0.00000
    103       7.8210      0.00000
    104       7.8210      0.00000
    105       7.9934      0.00000
    106       7.9934      0.00000
    107       8.2374      0.00000
    108       8.2374      0.00000
    109       8.3635      0.00000
    110       8.3635      0.00000
    111       8.5703      0.00000
    112       8.5703      0.00000
    113       8.6324      0.00000
    114       8.6324      0.00000
    115       8.8358      0.00000
    116       8.8360      0.00000
    117       9.1799      0.00000
    118       9.1806      0.00000
    119       9.3592      0.00000
    120       9.3782      0.00000


--------------------------------------------------------------------------------------------------------


 soft charge-density along one line, spin component           1
         0         1         2         3         4         5         6         7         8         9
 total charge-density along one line
 
 pseudopotential strength for first ion, spin component:           1
-13.782  -0.003   0.000   0.000  -0.000   3.083   0.002  -0.000
 -0.003 -13.776   0.000  -0.000   0.000   0.002   3.079  -0.000
  0.000   0.000 -13.774  -0.008   0.005  -0.000  -0.000   3.078
  0.000  -0.000  -0.008 -13.780  -0.007  -0.000   0.000   0.005
 -0.000   0.000   0.005  -0.007 -13.788   0.000  -0.000  -0.003
  3.083   0.002  -0.000  -0.000   0.000   6.486  -0.002   0.000
  0.002   3.079  -0.000   0.000  -0.000  -0.002   6.490   0.000
 -0.000  -0.000   3.078   0.005  -0.003   0.000   0.000   6.490
 -0.000   0.000   0.005   3.082   0.005   0.000  -0.000  -0.002
  0.000  -0.000  -0.003   0.005   3.088  -0.000   0.000   0.001
 -0.000   0.000  -0.000   0.000   0.001   0.000  -0.000  -0.002
  0.000  -0.000  -0.000   0.001  -0.001  -0.000   0.000   0.003
  0.004  -0.004   0.000  -0.000   0.000  -0.001   0.000   0.000
 -0.000  -0.000  -0.005   0.004   0.000  -0.000  -0.000   0.001
 -0.000  -0.000  -0.002  -0.004   0.004  -0.000  -0.000   0.000
  0.007  -0.008   0.000  -0.000   0.000  -0.000  -0.000   0.000
 -0.000  -0.000  -0.009   0.007   0.000  -0.000  -0.000   0.000
 -0.000  -0.000  -0.004  -0.008   0.007  -0.000  -0.000  -0.000
 total augmentation occupancy for first ion, spin component:           1
  2.000   0.000   0.000   0.000   0.000   0.000   0.000   0.000   0.000   0.000   0.000   0.000   0.000   0.000   0.000   0.000
  0.000   2.000   0.000   0.000   0.000   0.000   0.000   0.000   0.000   0.000   0.000   0.000   0.000   0.000   0.000   0.000
  0.000   0.000   2.000   0.000   0.000   0.000   0.000   0.000   0.000   0.000   0.000   0.000   0.000   0.000   0.000   0.000
  0.000   0.000   0.000   2.000   0.000   0.000   0.000   0.000   0.000   0.000   0.000   0.000   0.000   0.000   0.000   0.000
  0.000   0.000   0.000   0.000   2.000   0.000   0.000   0.000   0.000   0.000   0.000   0.000   0.000   0.000   0.000   0.000
  0.000   0.000   0.000   0.000   0.000   0.000   0.000   0.000   0.000   0.000   0.000   0.000   0.000   0.000   0.000   0.000
  0.000   0.000   0.000   0.000   0.000   0.000   0.000   0.000   0.000   0.000   0.000   0.000   0.000   0.000   0.000   0.000
  0.000   0.000   0.000   0.000   0.000   0.000   0.000   0.000   0.000   0.000   0.000   0.000   0.000   0.000   0.000   0.000
  0.000   0.000   0.000   0.000   0.000   0.000   0.000   0.000   0.000   0.000   0.000   0.000   0.000   0.000   0.000   0.000
  0.000   0.000   0.000   0.000   0.000   0.000   0.000   0.000   0.000   0.000   0.000   0.000   0.000   0.000   0.000   0.000
  0.000   0.000   0.000   0.000   0.000   0.000   0.000   0.000   0.000   0.000   2.000   0.000   0.000   0.000   0.000   0.000
  0.000   0.000   0.000   0.000   0.000   0.000   0.000   0.000   0.000   0.000   0.000   0.000   0.000   0.000   0.000   0.000
  0.000   0.000   0.000   0.000   0.000   0.000   0.000   0.000   0.000   0.000   0.000   0.000   0.667   0.000   0.000   0.000
  0.000   0.000   0.000   0.000   0.000   0.000   0.000   0.000   0.000   0.000   0.000   0.000   0.000   0.667   0.000   0.000
  0.000   0.000   0.000   0.000   0.000   0.000   0.000   0.000   0.000   0.000   0.000   0.000   0.000   0.000   0.667   0.000
  0.000   0.000   0.000   0.000   0.000   0.000   0.000   0.000   0.000   0.000   0.000   0.000   0.000   0.000   0.000   0.000
  0.000   0.000   0.000   0.000   0.000   0.000   0.000   0.000   0.000   0.000   0.000   0.000   0.000   0.000   0.000   0.000
  0.000   0.000   0.000   0.000   0.000   0.000   0.000   0.000   0.000   0.000   0.000   0.000   0.000   0.000   0.000   0.000


------------------------ aborting loop because EDIFF is reached ----------------------------------------


 


 total charge     
 
# of ion       s       p       d       tot
------------------------------------------
    1        1.531   0.440   9.841  11.812
    2        1.531   0.440   9.841  11.812
    3        1.531   0.440   9.841  11.812
    4        1.531   0.440   9.841  11.812
    5        1.504   2.885   0.007   4.396
    6        1.504   2.885   0.007   4.396
    7        1.504   2.885   0.007   4.396
    8        1.504   2.885   0.007   4.396
    9        1.501   2.901   0.005   4.407
   10        1.501   2.901   0.005   4.407
   11        1.501   2.901   0.005   4.407
   12        1.501   2.901   0.005   4.407
   13        1.507   2.872   0.008   4.387
   14        1.507   2.872   0.008   4.387
   15        1.507   2.872   0.008   4.387
   16        1.507   2.872   0.008   4.387
   17        2.290   4.722   0.024   7.037
   18        2.290   4.722   0.024   7.037
   19        2.290   4.722   0.024   7.037
   20        2.290   4.722   0.024   7.037
--------------------------------------------------
tot         33.332  55.278  39.544 128.154
 
    CHARGE:  cpu time    0.0970: real time    0.1481
    FORLOC:  cpu time    0.0020: real time    0.0040
    FORHF :  cpu time  219.8116: real time  220.7530
    FORNL :  cpu time    0.2950: real time    0.3015
    FORCOR:  cpu time    0.3290: real time    0.3369
    FORHAR:  cpu time    0.0140: real time    0.0279
    OFIELD:  cpu time    0.0010: real time    0.0030

 VOLUME and BASIS-vectors are now :
 -----------------------------------------------------------------------------
  energy-cutoff  :      450.00
  volume of cell :      887.78
      direct lattice vectors                 reciprocal lattice vectors
    10.434200287  0.000000000  0.000000000     0.095838682  0.000000000  0.000000000
     0.000000000  4.790500164  0.000000000     0.000000000  0.208746470  0.000000000
     0.000000000  0.000000000 17.760999680     0.000000000  0.000000000  0.056303137

  length of vectors
    10.434200287  4.790500164 17.760999680     0.095838682  0.208746470  0.056303137


 FORCES acting on ions
    electron-ion (+dipol)            ewald-force                    non-local-force                 convergence-correction
 -----------------------------------------------------------------------------------------------
   -.627E+02 -.122E-03 0.529E+02   0.607E+02 -.183E-04 -.506E+02   0.186E+01 -.318E-21 -.210E+01   0.130E-01 0.119E-03 -.985E-02
   0.627E+02 0.242E-03 -.529E+02   -.607E+02 0.183E-04 0.506E+02   -.186E+01 0.424E-21 0.210E+01   -.143E-01 -.345E-03 0.850E-02
   0.627E+02 0.242E-03 0.529E+02   -.607E+02 0.183E-04 -.506E+02   -.186E+01 0.424E-21 -.210E+01   -.131E-01 -.346E-03 -.579E-02
   -.627E+02 -.122E-03 -.529E+02   0.607E+02 -.183E-04 0.506E+02   0.186E+01 -.106E-20 0.210E+01   0.130E-01 0.120E-03 0.930E-02
   0.922E+02 -.259E-05 -.480E+02   -.940E+02 -.117E-04 0.486E+02   0.174E+01 0.424E-21 -.603E+00   -.586E-04 0.266E-04 -.262E-02
   -.922E+02 0.476E-04 0.480E+02   0.940E+02 0.117E-04 -.486E+02   -.174E+01 0.265E-22 0.603E+00   0.210E-03 -.284E-04 0.287E-02
   -.922E+02 0.479E-04 -.480E+02   0.940E+02 0.117E-04 0.486E+02   -.174E+01 0.476E-21 -.603E+00   0.131E-03 -.285E-04 -.273E-02
   0.922E+02 -.322E-05 0.480E+02   -.940E+02 -.117E-04 -.486E+02   0.174E+01 0.424E-21 0.603E+00   -.488E-04 0.272E-04 0.279E-02
   -.397E+02 0.801E-06 0.765E+02   0.405E+02 -.489E-05 -.781E+02   -.859E+00 -.212E-21 0.154E+01   -.227E-03 0.161E-04 -.194E-03
   0.397E+02 0.504E-04 -.765E+02   -.405E+02 0.489E-05 0.781E+02   0.859E+00 -.212E-21 -.154E+01   0.174E-03 -.279E-04 0.105E-03
   0.397E+02 0.491E-04 0.765E+02   -.405E+02 0.489E-05 -.781E+02   0.859E+00 0.132E-22 0.154E+01   0.100E-03 -.270E-04 -.316E-03
   -.397E+02 0.215E-05 -.765E+02   0.405E+02 -.489E-05 0.781E+02   -.859E+00 0.000E+00 -.154E+01   -.179E-03 0.159E-04 0.144E-03
   -.649E+02 -.265E-05 -.121E+03   0.662E+02 -.969E-05 0.123E+03   -.125E+01 -.212E-21 -.157E+01   -.124E-02 0.251E-04 0.513E-02
   0.649E+02 0.513E-04 0.121E+03   -.662E+02 0.969E-05 -.123E+03   0.125E+01 -.212E-21 0.157E+01   0.123E-02 -.308E-04 -.516E-02
   0.649E+02 0.521E-04 -.121E+03   -.662E+02 0.969E-05 0.123E+03   0.125E+01 0.265E-21 -.157E+01   0.108E-02 -.314E-04 0.526E-02
   -.649E+02 -.378E-05 0.121E+03   0.662E+02 -.969E-05 -.123E+03   -.125E+01 -.212E-21 0.157E+01   -.111E-02 0.251E-04 -.511E-02
   -.185E+00 0.182E-05 -.121E+02   0.290E+00 -.548E-05 0.123E+02   -.106E+00 -.265E-22 -.141E+00   0.116E-02 0.209E-04 0.626E-02
   0.185E+00 0.523E-04 0.121E+02   -.290E+00 0.548E-05 -.123E+02   0.106E+00 0.000E+00 0.141E+00   -.112E-02 -.449E-04 -.645E-02
   0.185E+00 0.512E-04 -.121E+02   -.290E+00 0.548E-05 0.123E+02   0.106E+00 0.000E+00 -.141E+00   -.952E-03 -.437E-04 0.635E-02
   -.185E+00 0.313E-05 0.121E+02   0.290E+00 -.548E-05 -.123E+02   -.106E+00 -.132E-21 0.141E+00   0.103E-02 0.191E-04 -.633E-02
 -----------------------------------------------------------------------------------------------
   0.531E-03 0.637E-03 -.199E-02   0.422E-14 0.171E-14 0.462E-13   -.222E-15 -.119E-21 -.611E-15   -.132E-02 -.540E-03 0.216E-02
 
 
 POSITION                                       TOTAL-FORCE (eV/Angst)
 -----------------------------------------------------------------------------------
      1.67927      1.19763      7.79733         0.056569     -0.000000     -0.073013
      8.75493      3.59288      9.96367        -0.056569      0.000000      0.073013
      3.53783      3.59288     16.67783        -0.056569      0.000000     -0.073013
      6.89637      1.19763      1.08317         0.056569     -0.000000      0.073013
      1.66861      1.19763      0.03521         0.079956     -0.000000     -0.046977
      8.76559      3.59288     17.72579        -0.079956      0.000000      0.046977
      3.54849      3.59288      8.91571        -0.079956      0.000000     -0.046977
      6.88571      1.19763      8.84529         0.079956      0.000000      0.046977
      3.13268      1.19763      5.06151        -0.072026      0.000000      0.080392
      7.30152      3.59288     12.69949         0.072026     -0.000000     -0.080392
      2.08442      3.59288     13.94201         0.072026      0.000000      0.080392
      8.34978      1.19763      3.81899        -0.072026      0.000000     -0.080392
      0.35353      1.19763     10.90043        -0.038969      0.000000     -0.063709
     10.08067      3.59288      6.86057         0.038969     -0.000000      0.063709
      4.86357      3.59288      2.01993         0.038969      0.000000     -0.063709
      5.57063      1.19763     15.74107        -0.038969      0.000000      0.063709
      4.35243      1.19763     11.93416         0.000688      0.000000      0.002250
      6.08177      3.59288      5.82684        -0.000688      0.000000     -0.002250
      0.86467      3.59288      3.05366        -0.000688     -0.000000      0.002250
      9.56953      1.19763     14.70734         0.000688      0.000000     -0.002250
 -----------------------------------------------------------------------------------
    total drift:                               -0.000785      0.000098      0.000174


--------------------------------------------------------------------------------------------------------



  FREE ENERGIE OF THE ION-ELECTRON SYSTEM (eV)
  ---------------------------------------------------
  free  energy   TOTEN  =       -67.56329535 eV

  energy  without entropy=      -67.56329535  energy(sigma->0) =      -67.56329535
 


--------------------------------------------------------------------------------------------------------


    POTLOK:  cpu time    0.3439: real time    0.3492


--------------------------------------------------------------------------------------------------------


     LOOP+:  cpu time 1451.1434: real time 1456.5818
    4ORBIT:  cpu time    0.0000: real time    0.0000
 


 total charge     
 
# of ion       s       p       d       tot
------------------------------------------
    1        1.531   0.440   9.841  11.812
    2        1.531   0.440   9.841  11.812
    3        1.531   0.440   9.841  11.812
    4        1.531   0.440   9.841  11.812
    5        1.504   2.885   0.007   4.396
    6        1.504   2.885   0.007   4.396
    7        1.504   2.885   0.007   4.396
    8        1.504   2.885   0.007   4.396
    9        1.501   2.901   0.005   4.407
   10        1.501   2.901   0.005   4.407
   11        1.501   2.901   0.005   4.407
   12        1.501   2.901   0.005   4.407
   13        1.507   2.872   0.008   4.387
   14        1.507   2.872   0.008   4.387
   15        1.507   2.872   0.008   4.387
   16        1.507   2.872   0.008   4.387
   17        2.290   4.722   0.024   7.037
   18        2.290   4.722   0.024   7.037
   19        2.290   4.722   0.024   7.037
   20        2.290   4.722   0.024   7.037
--------------------------------------------------
tot         33.332  55.278  39.544 128.154
 
 BZINTS: Fermi energy:  1.383113;176.000000 electrons
         Band energy:***********;  BLOECHL correction:  0.000000

 total amount of memory used by VASP MPI-rank0    62607. kBytes
=======================================================================

   base      :      30000. kBytes
   nonlr-proj:      17745. kBytes
   fftplans  :       2167. kBytes
   grid      :       6523. kBytes
   one-center:        311. kBytes
   HF        :        194. kBytes
   wavefun   :       5667. kBytes
 
  
  
 General timing and accounting informations for this job:
 ========================================================
  
                  Total CPU time used (sec):     1500.626
                            User time (sec):     1487.434
                          System time (sec):       13.192
                         Elapsed time (sec):     1507.264
  
                   Maximum memory used (kb):      802112.
                   Average memory used (kb):           0.
  
                          Minor page faults:      3037594
                          Major page faults:          210
                 Voluntary context switches:         9510
