 vasp.5.4.4.18Apr17-6-g9f103f2a35 (build Aug 19 2019 13:40:55) complex          
  
 executed on             LinuxIFC date 2020.04.17  08:29:57
 running on   48 total cores
 distrk:  each k-point on   48 cores,    1 groups
 distr:  one band on NCORES_PER_BAND=   1 cores,   48 groups


--------------------------------------------------------------------------------------------------------


 INCAR:
 POTCAR:    PAW_PBE I 08Apr2002                   
 POTCAR:    PAW_PBE Pb_d 06Sep2000                
 POTCAR:    PAW_PBE Cs_sv 08Apr2002               

 ----------------------------------------------------------------------------- 
|                                                                             |
|           W    W    AA    RRRRR   N    N  II  N    N   GGGG   !!!           |
|           W    W   A  A   R    R  NN   N  II  NN   N  G    G  !!!           |
|           W    W  A    A  R    R  N N  N  II  N N  N  G       !!!           |
|           W WW W  AAAAAA  RRRRR   N  N N  II  N  N N  G  GGG   !            |
|           WW  WW  A    A  R   R   N   NN  II  N   NN  G    G                |
|           W    W  A    A  R    R  N    N  II  N    N   GGGG   !!!           |
|                                                                             |
|      For optimal performance we recommend to set                            |
|        NCORE= 4 - approx SQRT( number of cores)                             |
|      NCORE specifies how many cores store one orbital (NPAR=cpu/NCORE).     |
|      This setting can  greatly improve the performance of VASP for DFT.     |
|      The default,   NCORE=1            might be grossly inefficient         |
|      on modern multi-core architectures or massively parallel machines.     |
|      Do your own testing !!!!                                               |
|      Unfortunately you need to use the default for GW and RPA calculations. |
|      (for HF NCORE is supported but not extensively tested yet)             |
|                                                                             |
 ----------------------------------------------------------------------------- 

 POTCAR:    PAW_PBE I 08Apr2002                   
   VRHFIN =I : s2p5                                                             
   LEXCH  = PE                                                                  
   EATOM  =   315.8678 eV,   23.2156 Ry                                         
                                                                                
   TITEL  = PAW_PBE I 08Apr2002                                                 
   LULTRA =        F    use ultrasoft PP ?                                      
   IUNSCR =        1    unscreen: 0-lin 1-nonlin 2-no                           
   RPACOR =    2.200    partial core radius                                     
   POMASS =  126.904; ZVAL   =    7.000    mass and valenz                      
   RCORE  =    2.300    outmost cutoff radius                                   
   RWIGS  =    2.810; RWIGS  =    1.487    wigner-seitz radius (au A)           
   ENMAX  =  175.647; ENMIN  =  131.735 eV                                      
   ICORE  =        3    local potential                                         
   LCOR   =        T    correct aug charges                                     
   LPAW   =        T    paw PP                                                  
   EAUG   =  370.139                                                            
   DEXC   =    0.000                                                            
   RMAX   =    2.359    core radius for proj-oper                               
   RAUG   =    1.300    factor for augmentation sphere                          
   RDEP   =    2.392    radius for radial grids                                 
   RDEPT  =    2.170    core radius for aug-charge                              
                                                                                
   Atomic configuration                                                         
   13 entries                                                                   
     n  l   j            E        occ.                                          
     1  0  0.50    -32976.3739   2.0000                                         
     2  0  0.50     -5094.5933   2.0000                                         
     2  1  1.50     -4572.0131   6.0000                                         
     3  0  0.50     -1028.2813   2.0000                                         
     3  1  1.50      -859.0250   6.0000                                         
     3  2  2.50      -605.7620  10.0000                                         
     4  0  0.50      -180.5540   2.0000                                         
     4  1  1.50      -127.5306   6.0000                                         
     4  2  2.50       -50.2720  10.0000                                         
     5  0  0.50       -17.4058   2.0000                                         
     5  1  0.50        -7.0851   5.0000                                         
     5  2  1.50        -7.0750   0.0000                                         
     4  3  2.50        -7.0750   0.0000                                         
   Description                                                                  
     l       E           TYP  RCUT    TYP  RCUT                                 
     0    -17.4058016     23  2.300                                             
     0    -18.7663842     23  2.300                                             
     1     -7.0850686     23  2.300                                             
     1     -4.2150896     23  2.300                                             
     2     -7.0750295     23  2.300                                             
     3     -1.3605826     23  2.300                                             
  local pseudopotential read in
  partial core-charges read in
  partial kinetic energy density read in
  atomic valenz-charges read in
  non local Contribution for L=           0  read in
    real space projection operators read in
  non local Contribution for L=           0  read in
    real space projection operators read in
  non local Contribution for L=           1  read in
    real space projection operators read in
  non local Contribution for L=           1  read in
    real space projection operators read in
  non local Contribution for L=           2  read in
    real space projection operators read in
    PAW grid and wavefunctions read in
 
   number of l-projection  operators is LMAX  =           5
   number of lm-projection operators is LMMAX =          13
 
 POTCAR:    PAW_PBE Pb_d 06Sep2000                
   VRHFIN =Pb:                                                                  
   LEXCH  = PE                                                                  
   EATOM  =  1661.6185 eV,  122.1255 Ry                                         
                                                                                
   TITEL  = PAW_PBE Pb_d 06Sep2000                                              
   LULTRA =        F    use ultrasoft PP ?                                      
   IUNSCR =        1    unscreen: 0-lin 1-nonlin 2-no                           
   RPACOR =    2.200    partial core radius                                     
   POMASS =  207.200; ZVAL   =   14.000    mass and valenz                      
   RCORE  =    2.500    outmost cutoff radius                                   
   RWIGS  =    3.260; RWIGS  =    1.725    wigner-seitz radius (au A)           
   ENMAX  =  237.835; ENMIN  =  178.376 eV                                      
   ICORE  =        3    local potential                                         
   LCOR   =        T    correct aug charges                                     
   LPAW   =        T    paw PP                                                  
   EAUG   =  391.914                                                            
   DEXC   =    0.000                                                            
   RMAX   =    2.565    core radius for proj-oper                               
   RAUG   =    1.300    factor for augmentation sphere                          
   RDEP   =    2.643    radius for radial grids                                 
   RDEPT  =    2.092    core radius for aug-charge                              
                                                                                
   Atomic configuration                                                         
   16 entries                                                                   
     n  l   j            E        occ.                                          
     1  0  0.50    -88091.8466   2.0000                                         
     2  0  0.50    -15753.4197   2.0000                                         
     2  1  1.50    -13508.1797   6.0000                                         
     3  0  0.50     -3781.7194   2.0000                                         
     3  1  1.50     -3138.2529   6.0000                                         
     3  2  2.50     -2483.2977  10.0000                                         
     4  0  0.50      -856.2895   2.0000                                         
     4  1  1.50      -645.4942   6.0000                                         
     4  2  2.50      -401.8768  10.0000                                         
     4  3  3.50      -132.9059  14.0000                                         
     5  0  0.50      -144.0950   2.0000                                         
     5  1  1.50       -85.7879   6.0000                                         
     5  2  2.50       -21.1769  10.0000                                         
     6  0  0.50       -12.0372   2.0000                                         
     6  1  1.50        -3.4971   2.0000                                         
     5  3  2.50        -2.7212   0.0000                                         
   Description                                                                  
     l       E           TYP  RCUT    TYP  RCUT                                 
     2    -21.1768523     23  2.500                                             
     2      1.3605826     23  2.500                                             
     0    -12.0371562     23  2.500                                             
     0     13.6058260     23  2.500                                             
     1     -3.4971339     23  2.500                                             
     1     13.6058260     23  2.500                                             
     3     -1.3605826      7  2.500                                             
  local pseudopotential read in
  partial core-charges read in
  partial kinetic energy density read in
  atomic valenz-charges read in
  non local Contribution for L=           2  read in
    real space projection operators read in
  non local Contribution for L=           2  read in
    real space projection operators read in
  non local Contribution for L=           0  read in
    real space projection operators read in
  non local Contribution for L=           0  read in
    real space projection operators read in
  non local Contribution for L=           1  read in
    real space projection operators read in
  non local Contribution for L=           1  read in
    real space projection operators read in
    PAW grid and wavefunctions read in
 
   number of l-projection  operators is LMAX  =           6
   number of lm-projection operators is LMMAX =          18
 
 POTCAR:    PAW_PBE Cs_sv 08Apr2002               
   VRHFIN =Cs: 5s5p6s                                                           
   LEXCH  = PE                                                                  
   EATOM  =   555.6835 eV,   40.8416 Ry                                         
                                                                                
   TITEL  = PAW_PBE Cs_sv 08Apr2002                                             
   LULTRA =        F    use ultrasoft PP ?                                      
   IUNSCR =        1    unscreen: 0-lin 1-nonlin 2-no                           
   RPACOR =    2.200    partial core radius                                     
   POMASS =  132.900; ZVAL   =    9.000    mass and valenz                      
   RCORE  =    2.500    outmost cutoff radius                                   
   RWIGS  =    2.500; RWIGS  =    1.323    wigner-seitz radius (au A)           
   ENMAX  =  220.318; ENMIN  =  165.238 eV                                      
   RCLOC  =    2.207    cutoff for local pot                                    
   LCOR   =        T    correct aug charges                                     
   LPAW   =        T    paw PP                                                  
   EAUG   =  407.933                                                            
   DEXC   =    0.000                                                            
   RMAX   =    2.554    core radius for proj-oper                               
   RAUG   =    1.300    factor for augmentation sphere                          
   RDEP   =    2.590    radius for radial grids                                 
   RDEPT  =    2.117    core radius for aug-charge                              
                                                                                
   Atomic configuration                                                         
   13 entries                                                                   
     n  l   j            E        occ.                                          
     1  0  0.50    -35790.1377   2.0000                                         
     2  0  0.50     -5613.6201   2.0000                                         
     2  1  1.50     -5035.0101   6.0000                                         
     3  0  0.50     -1167.0767   2.0000                                         
     3  1  1.50      -980.9754   6.0000                                         
     3  2  2.50      -708.0703  10.0000                                         
     4  0  0.50      -220.2386   2.0000                                         
     4  1  1.50      -160.7596   6.0000                                         
     4  2  2.50       -74.2354  10.0000                                         
     5  0  0.50       -26.7287   2.0000                                         
     6  0  0.50        -2.0862   1.0000                                         
     5  1  1.50       -13.5159   6.0000                                         
     5  2  2.50        -0.4136   0.0000                                         
   Description                                                                  
     l       E           TYP  RCUT    TYP  RCUT                                 
     0    -26.7287425     23  1.900                                             
     0     -2.0862306     23  1.900                                             
     1    -13.5158719     23  2.500                                             
     1     -2.7211652     23  2.500                                             
     2     -0.4136171     23  2.500                                             
  local pseudopotential read in
  partial core-charges read in
  partial kinetic energy density read in
  atomic valenz-charges read in
  non local Contribution for L=           0  read in
    real space projection operators read in
  non local Contribution for L=           0  read in
    real space projection operators read in
  non local Contribution for L=           1  read in
    real space projection operators read in
  non local Contribution for L=           1  read in
    real space projection operators read in
  non local Contribution for L=           2  read in
    real space projection operators read in
    PAW grid and wavefunctions read in
 
   number of l-projection  operators is LMAX  =           5
   number of lm-projection operators is LMMAX =          13
 
 Optimization of the real space projectors (new method)

 maximal supplied QI-value         = 16.25
 optimisation between [QCUT,QGAM] = [ 10.73, 21.61] = [ 32.22,130.83] Ry 
 Optimized for a Real-space Cutoff    1.30 Angstroem

   l    n(q)    QCUT    max X(q) W(low)/X(q) W(high)/X(q)  e(spline) 
   0      8    10.726   194.483    0.28E-03    0.91E-04    0.87E-07
   0      8    10.726   190.334    0.27E-03    0.88E-04    0.85E-07
   1      8    10.726   116.687    0.16E-03    0.48E-03    0.15E-06
   1      8    10.726    88.696    0.16E-03    0.47E-03    0.15E-06
   2      7    10.726     4.877    0.19E-03    0.30E-04    0.27E-07
 Optimization of the real space projectors (new method)

 maximal supplied QI-value         = 15.12
 optimisation between [QCUT,QGAM] = [ 10.73, 21.62] = [ 32.26,130.87] Ry 
 Optimized for a Real-space Cutoff    1.38 Angstroem

   l    n(q)    QCUT    max X(q) W(low)/X(q) W(high)/X(q)  e(spline) 
   2      8    10.734     3.846    0.42E-03    0.65E-04    0.45E-07
   2      8    10.734     8.593    0.38E-03    0.21E-03    0.11E-06
   0      9    10.734    20.082    0.60E-04    0.15E-03    0.97E-07
   0      9    10.734     8.597    0.89E-04    0.21E-03    0.14E-06
   1      8    10.734    33.223    0.23E-03    0.26E-03    0.11E-06
   1      8    10.734    15.899    0.21E-03    0.24E-03    0.10E-06
 Optimization of the real space projectors (new method)

 maximal supplied QI-value         = 15.12
 optimisation between [QCUT,QGAM] = [ 10.73, 21.62] = [ 32.26,130.87] Ry 
 Optimized for a Real-space Cutoff    1.55 Angstroem

   l    n(q)    QCUT    max X(q) W(low)/X(q) W(high)/X(q)  e(spline) 
   0     10    10.734    25.322    0.12E-03    0.12E-04    0.48E-06
   0     10    10.734    99.187    0.12E-03    0.12E-04    0.47E-06
   1     10    10.734    11.761    0.20E-03    0.42E-03    0.27E-06
   1     10    10.734     8.275    0.21E-03    0.46E-03    0.30E-06
   2      9    10.734     3.829    0.32E-03    0.79E-04    0.33E-06
  PAW_PBE I 08Apr2002                   :
 energy of atom  1       EATOM= -315.8678
 kinetic energy error for atom=    0.0010 (will be added to EATOM!!)
  PAW_PBE Pb_d 06Sep2000                :
 energy of atom  2       EATOM=-1661.6185
 kinetic energy error for atom=    0.0063 (will be added to EATOM!!)
  PAW_PBE Cs_sv 08Apr2002               :
 energy of atom  3       EATOM= -555.6835
 kinetic energy error for atom=    0.0031 (will be added to EATOM!!)
 
 
 POSCAR: CsPbI3_325K                             
  positions in direct lattice
  velocities in cartesian coordinates
 exchange correlation table for  LEXCH =        8
   RHO(1)=    0.500       N(1)  =     2000
   RHO(2)=  100.500       N(2)  =     4000
 


--------------------------------------------------------------------------------------------------------


 ion  position               nearest neighbor table
   1  0.192  0.306  0.540-  14 3.21  13 3.21
   2  0.808  0.694  0.460-  14 3.21  13 3.21
   3  0.692  0.194  0.460-  13 3.21  14 3.21
   4  0.308  0.806  0.540-  13 3.21  14 3.21
   5  0.808  0.694  0.040-  16 3.21  15 3.21
   6  0.192  0.306  0.960-  16 3.21  15 3.21
   7  0.308  0.806  0.960-  15 3.21  16 3.21
   8  0.692  0.194  0.040-  15 3.21  16 3.21
   9  0.918  0.000  0.750-  15 3.21  13 3.21
  10  0.082  1.000  0.250-  13 3.21  15 3.21
  11  0.418  0.500  0.250-  14 3.21  16 3.21
  12  0.582  0.500  0.750-  16 3.21  14 3.21
  13  0.000  0.000  0.500-   3 3.21   4 3.21  10 3.21   9 3.21   1 3.21   2 3.21
  14  0.500  0.500  0.500-   2 3.21   1 3.21  11 3.21  12 3.21   3 3.21   4 3.21
  15  0.000  0.000  0.000-   8 3.21   7 3.21   9 3.21  10 3.21   6 3.21   5 3.21
  16  0.500  0.500  0.000-   5 3.21   6 3.21  12 3.21  11 3.21   8 3.21   7 3.21
  17  0.978  0.424  0.250-
  18  0.022  0.576  0.750-
  19  0.478  0.076  0.750-
  20  0.522  0.924  0.250-
 
  LATTYP: Found a simple orthorhombic cell.
 ALAT       =     8.6751003265
 B/A-ratio  =     1.0171640703
 C/A-ratio  =     1.4438795264
  
  Lattice vectors:
  
 A1 = (   8.6751003265,   0.0000000000,   0.0000000000)
 A2 = (   0.0000000000,   8.8240003586,   0.0000000000)
 A3 = (   0.0000000000,   0.0000000000,  12.5257997513)


Analysis of symmetry for initial positions (statically):
=====================================================================
 Subroutine PRICEL returns:
 Original cell was already a primitive cell.
 

 Routine SETGRP: Setting up the symmetry group for a 
 simple orthorhombic supercell.


 Subroutine GETGRP returns: Found  8 space group operations
 (whereof  2 operations were pure point group operations)
 out of a pool of  8 trial point group operations.


The static configuration has the point symmetry S_2 .
 The point group associated with its full space group is D_2h.


Analysis of symmetry for dynamics (positions and initial velocities):
=====================================================================
 Subroutine PRICEL returns:
 Original cell was already a primitive cell.
 

 Routine SETGRP: Setting up the symmetry group for a 
 simple orthorhombic supercell.


 Subroutine GETGRP returns: Found  8 space group operations
 (whereof  2 operations were pure point group operations)
 out of a pool of  8 trial point group operations.


The dynamic configuration has the point symmetry S_2 .
 The point group associated with its full space group is D_2h.


Analysis of structural, dynamic, and magnetic symmetry:
=====================================================================
 Subroutine PRICEL returns:
 Original cell was already a primitive cell.
 

 Routine SETGRP: Setting up the symmetry group for a 
 simple orthorhombic supercell.


 Subroutine GETGRP returns: Found  2 space group operations
 (whereof  2 operations were pure point group operations)
 out of a pool of  8 trial point group operations.


The (compounded) configuration has the point symmetry S_2 .


 Subroutine INISYM returns: Found  2 space group operations
 (whereof  2 operations are pure point group operations),
 and found     1 'primitive' translations

 
 
 KPOINTS: K-Path Generated by VASPKIT.            
  interpolating k-points between supplied coordinates
  k-points in reciprocal lattice
Space group operators:
 irot       det(A)        alpha          n_x          n_y          n_z        tau_x        tau_y        tau_z
    1     1.000000     0.000000     1.000000     0.000000     0.000000     0.000000     0.000000     0.000000
    2    -1.000000     0.000000     1.000000     0.000000     0.000000     0.000000     0.000000     0.000000


--------------------------------------------------------------------------------------------------------




 Dimension of arrays:
   k-points           NKPTS =    240   k-points in BZ     NKDIM =    240   number of bands    NBANDS=    240
   number of dos      NEDOS =   2001   number of ions     NIONS =     20
   non local maximal  LDIM  =      6   non local SUM 2l+1 LMDIM =     18
   total plane-waves  NPLWV = 161280
   max r-space proj   IRMAX =   2694   max aug-charges    IRDMAX=  78029
   dimension x,y,z NGX =    48 NGY =   48 NGZ =   70
   dimension x,y,z NGXF=    96 NGYF=   96 NGZF=  140
   support grid    NGXF=   192 NGYF=  192 NGZF=  280
   ions per type =              12   4   4
   NGX,Y,Z   is equivalent  to a cutoff of   9.20,  9.04,  9.29 a.u.
   NGXF,Y,Z  is equivalent  to a cutoff of  18.40, 18.09, 18.58 a.u.

 SYSTEM =  unknown system                          
 POSCAR =  CsPbI3_325K                             

 Startparameter for this run:
   NWRITE =      2    write-flag & timer
   PREC   = normal    normal or accurate (medium, high low for compatibility)
   ISTART =      1    job   : 0-new  1-cont  2-samecut
   ICHARG =     11    charge: 1-file 2-atom 10-const
   ISPIN  =      1    spin polarized calculation?
   LNONCOLLINEAR =      T non collinear calculations
   LSORBIT =      T    spin-orbit coupling
   INIWAV =      1    electr: 0-lowe 1-rand  2-diag
   LASPH  =      F    aspherical Exc in radial PAW
   METAGGA=      F    non-selfconsistent MetaGGA calc.

 Electronic Relaxation 1
   ENCUT  =  520.0 eV  33.07 Ry    5.75 a.u.  15.01 15.26 21.67*2*pi/ulx,y,z
   ENINI  =  520.0     initial cutoff
   ENAUG  =  407.9 eV  augmentation charge cutoff
   NELM   =    200;   NELMIN=  2; NELMDL=  0     # of ELM steps 
   EDIFF  = 0.1E-06   stopping-criterion for ELM
   LREAL  =      T    real-space projection
   NLSPLINE    = F    spline interpolate recip. space projectors
   LCOMPAT=      F    compatible to vasp.4.4
   GGA_COMPAT  = F    GGA compatible to vasp.4.4-vasp.4.6
   LMAXPAW     = -100 max onsite density
   LMAXMIX     =    4 max onsite mixed and CHGCAR
   VOSKOWN=      1    Vosko Wilk Nusair interpolation
   ROPT   =   -0.00050  -0.00050  -0.00050
 Ionic relaxation
   EDIFFG = 0.1E-05   stopping-criterion for IOM
   NSW    =      0    number of steps for IOM
   NBLOCK =      1;   KBLOCK =      1    inner block; outer block 
   IBRION =     -1    ionic relax: 0-MD 1-quasi-New 2-CG
   NFREE  =      0    steps in history (QN), initial steepest desc. (CG)
   ISIF   =      2    stress and relaxation
   IWAVPR =     10    prediction:  0-non 1-charg 2-wave 3-comb
   ISYM   =      2    0-nonsym 1-usesym 2-fastsym
   LCORR  =      T    Harris-Foulkes like correction to forces

   POTIM  = 0.5000    time-step for ionic-motion
   TEIN   =    0.0    initial temperature
   TEBEG  =    0.0;   TEEND  =   0.0 temperature during run
   SMASS  =  -3.00    Nose mass-parameter (am)
   estimated Nose-frequenzy (Omega)   =  0.10E-29 period in steps =****** mass=  -0.172E-26a.u.
   SCALEE = 1.0000    scale energy and forces
   NPACO  =    256;   APACO  = 16.0  distance and # of slots for P.C.
   PSTRESS=    0.0 pullay stress

  Mass of Ions in am
   POMASS = 126.90207.20132.90
  Ionic Valenz
   ZVAL   =   7.00 14.00  9.00
  Atomic Wigner-Seitz radii
   RWIGS  =  -1.00 -1.00 -1.00
  virtual crystal weights 
   VCA    =   1.00  1.00  1.00
   NELECT =     176.0000    total number of electrons
   NUPDOWN=      -1.0000    fix difference up-down

 DOS related values:
   EMIN   =  10.00;   EMAX   =-10.00  energy-range for DOS
   EFERMI =   0.00
   ISMEAR =     0;   SIGMA  =   0.05  broadening in eV -4-tet -1-fermi 0-gaus

 Electronic relaxation 2 (details)
   IALGO  =     38    algorithm
   LDIAG  =      T    sub-space diagonalisation (order eigenvalues)
   LSUBROT=      F    optimize rotation matrix (better conditioning)
   TURBO    =      0    0=normal 1=particle mesh
   IRESTART =      0    0=no restart 2=restart with 2 vectors
   NREBOOT  =      0    no. of reboots
   NMIN     =      0    reboot dimension
   EREF     =   0.00    reference energy to select bands
   IMIX   =      4    mixing-type and parameters
     AMIX     =   0.40;   BMIX     =  1.00
     AMIX_MAG =   1.60;   BMIX_MAG =  1.00
     AMIN     =   0.10
     WC   =   100.;   INIMIX=   1;  MIXPRE=   1;  MAXMIX= -45

 Intra band minimization:
   WEIMIN = 0.0000     energy-eigenvalue tresh-hold
   EBREAK =  0.10E-09  absolut break condition
   DEPER  =   0.30     relativ break condition  

   TIME   =   0.40     timestep for ELM

  volume/ion in A,a.u.               =      47.94       323.53
  Fermi-wavevector in a.u.,A,eV,Ry     =   0.930388  1.758178 11.777489  0.865621
  Thomas-Fermi vector in A             =   2.056771
 
 Write flags
   LWAVE        =      F    write WAVECAR
   LDOWNSAMPLE  =      F    k-point downsampling of WAVECAR
   LCHARG       =      F    write CHGCAR
   LVTOT        =      F    write LOCPOT, total local potential
   LVHAR        =      F    write LOCPOT, Hartree potential only
   LELF         =      F    write electronic localiz. function (ELF)
   LORBIT       =     10    0 simple, 1 ext, 2 COOP (PROOUT), +10 PAW based schemes


 Dipole corrections
   LMONO  =      F    monopole corrections only (constant potential shift)
   LDIPOL =      F    correct potential (dipole corrections)
   IDIPOL =      0    1-x, 2-y, 3-z, 4-all directions 
   EPSILON=  1.0000000 bulk dielectric constant

 Exchange correlation treatment:
   GGA     =    --    GGA type
   LEXCH   =     8    internal setting for exchange type
   VOSKOWN=      1    Vosko Wilk Nusair interpolation
   LHFCALC =     F    Hartree Fock is set to
   LHFONE  =     F    Hartree Fock one center treatment
   AEXX    =    0.0000 exact exchange contribution

 Linear response parameters
   LEPSILON=     F    determine dielectric tensor
   LRPA    =     F    only Hartree local field effects (RPA)
   LNABLA  =     F    use nabla operator in PAW spheres
   LVEL    =     F    velocity operator in full k-point grid
   LINTERFAST=   F  fast interpolation
   KINTER  =     0    interpolate to denser k-point grid
   CSHIFT  =0.1000    complex shift for real part using Kramers Kronig
   OMEGAMAX=  -1.0    maximum frequency
   DEG_THRESHOLD= 0.2000000E-02 threshold for treating states as degnerate
   RTIME   =   -0.100 relaxation time in fs
  (WPLASMAI=    0.000 imaginary part of plasma frequency in eV, 0.658/RTIME)
   DFIELD  = 0.0000000 0.0000000 0.0000000 field for delta impulse in time
 
 Orbital magnetization related:
   ORBITALMAG=     F  switch on orbital magnetization
   LCHIMAG   =     F  perturbation theory with respect to B field
   DQ        =  0.001000  dq finite difference perturbation B field
   LLRAUG    =     F  two centre corrections for induced B field



--------------------------------------------------------------------------------------------------------


 Static calculation
 charge density and potential remain constant during run
 non collinear spin polarized calculation
 Variant of blocked Davidson
 Davidson routine will perform the subspace rotation
 perform sub-space diagonalisation
    after iterative eigenvector-optimisation
 no mixing
 using additional bands          152
 real space projection scheme for non local part
 use partial core corrections
 calculate Harris-corrections to forces 
   (improved forces if not selfconsistent)
 use gradient corrections 
 WARNING: stress and forces are not correct
  (second derivative of E(xc) not defined)
 use of overlap-Matrix (Vanderbilt PP)
 Gauss-broadening in eV      SIGMA  =   0.05


--------------------------------------------------------------------------------------------------------


  energy-cutoff  :      450.00
  volume of cell :      958.84
      direct lattice vectors                 reciprocal lattice vectors
     8.675100327  0.000000000  0.000000000     0.115272442  0.000000000  0.000000000
     0.000000000  8.824000359  0.000000000     0.000000000  0.113327285  0.000000000
     0.000000000  0.000000000 12.525799751     0.000000000  0.000000000  0.079835222

  length of vectors
     8.675100327  8.824000359 12.525799751     0.115272442  0.113327285  0.079835222


 
 old parameters found on file WAVECAR:
  energy-cutoff  :      450.00
  volume of cell :      958.84
      direct lattice vectors                 reciprocal lattice vectors
     8.675100327  0.000000000  0.000000000     0.115272442  0.000000000  0.000000000
     0.000000000  8.824000359  0.000000000     0.000000000  0.113327285  0.000000000
     0.000000000  0.000000000 12.525799751     0.000000000  0.000000000  0.079835222

  length of vectors

 
 k-points in units of 2pi/SCALE and weight: K-Path Generated by VASPKIT.            
   0.00000000  0.00000000  0.00000000       0.004
   0.00303349  0.00000000  0.00000000       0.004
   0.00606697  0.00000000  0.00000000       0.004
   0.00910046  0.00000000  0.00000000       0.004
   0.01213394  0.00000000  0.00000000       0.004
   0.01516743  0.00000000  0.00000000       0.004
   0.01820091  0.00000000  0.00000000       0.004
   0.02123440  0.00000000  0.00000000       0.004
   0.02426788  0.00000000  0.00000000       0.004
   0.02730137  0.00000000  0.00000000       0.004
   0.03033485  0.00000000  0.00000000       0.004
   0.03336834  0.00000000  0.00000000       0.004
   0.03640182  0.00000000  0.00000000       0.004
   0.03943531  0.00000000  0.00000000       0.004
   0.04246879  0.00000000  0.00000000       0.004
   0.04550228  0.00000000  0.00000000       0.004
   0.04853577  0.00000000  0.00000000       0.004
   0.05156925  0.00000000  0.00000000       0.004
   0.05460274  0.00000000  0.00000000       0.004
   0.05763622  0.00000000  0.00000000       0.004
   0.05763622  0.00000000  0.00000000       0.004
   0.05763622  0.00298230  0.00000000       0.004
   0.05763622  0.00596459  0.00000000       0.004
   0.05763622  0.00894689  0.00000000       0.004
   0.05763622  0.01192919  0.00000000       0.004
   0.05763622  0.01491148  0.00000000       0.004
   0.05763622  0.01789378  0.00000000       0.004
   0.05763622  0.02087608  0.00000000       0.004
   0.05763622  0.02385838  0.00000000       0.004
   0.05763622  0.02684067  0.00000000       0.004
   0.05763622  0.02982297  0.00000000       0.004
   0.05763622  0.03280527  0.00000000       0.004
   0.05763622  0.03578756  0.00000000       0.004
   0.05763622  0.03876986  0.00000000       0.004
   0.05763622  0.04175216  0.00000000       0.004
   0.05763622  0.04473445  0.00000000       0.004
   0.05763622  0.04771675  0.00000000       0.004
   0.05763622  0.05069905  0.00000000       0.004
   0.05763622  0.05368135  0.00000000       0.004
   0.05763622  0.05666364  0.00000000       0.004
   0.05763622  0.05666364  0.00000000       0.004
   0.05460274  0.05666364  0.00000000       0.004
   0.05156925  0.05666364  0.00000000       0.004
   0.04853577  0.05666364  0.00000000       0.004
   0.04550228  0.05666364  0.00000000       0.004
   0.04246879  0.05666364  0.00000000       0.004
   0.03943531  0.05666364  0.00000000       0.004
   0.03640182  0.05666364  0.00000000       0.004
   0.03336834  0.05666364  0.00000000       0.004
   0.03033485  0.05666364  0.00000000       0.004
   0.02730137  0.05666364  0.00000000       0.004
   0.02426788  0.05666364  0.00000000       0.004
   0.02123440  0.05666364  0.00000000       0.004
   0.01820091  0.05666364  0.00000000       0.004
   0.01516743  0.05666364  0.00000000       0.004
   0.01213394  0.05666364  0.00000000       0.004
   0.00910046  0.05666364  0.00000000       0.004
   0.00606697  0.05666364  0.00000000       0.004
   0.00303349  0.05666364  0.00000000       0.004
   0.00000000  0.05666364  0.00000000       0.004
   0.00000000  0.05666364  0.00000000       0.004
   0.00000000  0.05368135  0.00000000       0.004
   0.00000000  0.05069905  0.00000000       0.004
   0.00000000  0.04771675  0.00000000       0.004
   0.00000000  0.04473445  0.00000000       0.004
   0.00000000  0.04175216  0.00000000       0.004
   0.00000000  0.03876986  0.00000000       0.004
   0.00000000  0.03578756  0.00000000       0.004
   0.00000000  0.03280527  0.00000000       0.004
   0.00000000  0.02982297  0.00000000       0.004
   0.00000000  0.02684067  0.00000000       0.004
   0.00000000  0.02385838  0.00000000       0.004
   0.00000000  0.02087608  0.00000000       0.004
   0.00000000  0.01789378  0.00000000       0.004
   0.00000000  0.01491148  0.00000000       0.004
   0.00000000  0.01192919  0.00000000       0.004
   0.00000000  0.00894689  0.00000000       0.004
   0.00000000  0.00596459  0.00000000       0.004
   0.00000000  0.00298230  0.00000000       0.004
   0.00000000  0.00000000  0.00000000       0.004
   0.00000000  0.00000000  0.00000000       0.004
   0.00000000  0.00000000  0.00210093       0.004
   0.00000000  0.00000000  0.00420185       0.004
   0.00000000  0.00000000  0.00630278       0.004
   0.00000000  0.00000000  0.00840371       0.004
   0.00000000  0.00000000  0.01050463       0.004
   0.00000000  0.00000000  0.01260556       0.004
   0.00000000  0.00000000  0.01470649       0.004
   0.00000000  0.00000000  0.01680742       0.004
   0.00000000  0.00000000  0.01890834       0.004
   0.00000000  0.00000000  0.02100927       0.004
   0.00000000  0.00000000  0.02311020       0.004
   0.00000000  0.00000000  0.02521112       0.004
   0.00000000  0.00000000  0.02731205       0.004
   0.00000000  0.00000000  0.02941298       0.004
   0.00000000  0.00000000  0.03151390       0.004
   0.00000000  0.00000000  0.03361483       0.004
   0.00000000  0.00000000  0.03571576       0.004
   0.00000000  0.00000000  0.03781668       0.004
   0.00000000  0.00000000  0.03991761       0.004
   0.00000000  0.00000000  0.03991761       0.004
   0.00303349  0.00000000  0.03991761       0.004
   0.00606697  0.00000000  0.03991761       0.004
   0.00910046  0.00000000  0.03991761       0.004
   0.01213394  0.00000000  0.03991761       0.004
   0.01516743  0.00000000  0.03991761       0.004
   0.01820091  0.00000000  0.03991761       0.004
   0.02123440  0.00000000  0.03991761       0.004
   0.02426788  0.00000000  0.03991761       0.004
   0.02730137  0.00000000  0.03991761       0.004
   0.03033485  0.00000000  0.03991761       0.004
   0.03336834  0.00000000  0.03991761       0.004
   0.03640182  0.00000000  0.03991761       0.004
   0.03943531  0.00000000  0.03991761       0.004
   0.04246879  0.00000000  0.03991761       0.004
   0.04550228  0.00000000  0.03991761       0.004
   0.04853577  0.00000000  0.03991761       0.004
   0.05156925  0.00000000  0.03991761       0.004
   0.05460274  0.00000000  0.03991761       0.004
   0.05763622  0.00000000  0.03991761       0.004
   0.05763622  0.00000000  0.03991761       0.004
   0.05763622  0.00298230  0.03991761       0.004
   0.05763622  0.00596459  0.03991761       0.004
   0.05763622  0.00894689  0.03991761       0.004
   0.05763622  0.01192919  0.03991761       0.004
   0.05763622  0.01491148  0.03991761       0.004
   0.05763622  0.01789378  0.03991761       0.004
   0.05763622  0.02087608  0.03991761       0.004
   0.05763622  0.02385838  0.03991761       0.004
   0.05763622  0.02684067  0.03991761       0.004
   0.05763622  0.02982297  0.03991761       0.004
   0.05763622  0.03280527  0.03991761       0.004
   0.05763622  0.03578756  0.03991761       0.004
   0.05763622  0.03876986  0.03991761       0.004
   0.05763622  0.04175216  0.03991761       0.004
   0.05763622  0.04473445  0.03991761       0.004
   0.05763622  0.04771675  0.03991761       0.004
   0.05763622  0.05069905  0.03991761       0.004
   0.05763622  0.05368135  0.03991761       0.004
   0.05763622  0.05666364  0.03991761       0.004
   0.05763622  0.05666364  0.03991761       0.004
   0.05460274  0.05666364  0.03991761       0.004
   0.05156925  0.05666364  0.03991761       0.004
   0.04853577  0.05666364  0.03991761       0.004
   0.04550228  0.05666364  0.03991761       0.004
   0.04246879  0.05666364  0.03991761       0.004
   0.03943531  0.05666364  0.03991761       0.004
   0.03640182  0.05666364  0.03991761       0.004
   0.03336834  0.05666364  0.03991761       0.004
   0.03033485  0.05666364  0.03991761       0.004
   0.02730137  0.05666364  0.03991761       0.004
   0.02426788  0.05666364  0.03991761       0.004
   0.02123440  0.05666364  0.03991761       0.004
   0.01820091  0.05666364  0.03991761       0.004
   0.01516743  0.05666364  0.03991761       0.004
   0.01213394  0.05666364  0.03991761       0.004
   0.00910046  0.05666364  0.03991761       0.004
   0.00606697  0.05666364  0.03991761       0.004
   0.00303349  0.05666364  0.03991761       0.004
   0.00000000  0.05666364  0.03991761       0.004
   0.00000000  0.05666364  0.03991761       0.004
   0.00000000  0.05368135  0.03991761       0.004
   0.00000000  0.05069905  0.03991761       0.004
   0.00000000  0.04771675  0.03991761       0.004
   0.00000000  0.04473445  0.03991761       0.004
   0.00000000  0.04175216  0.03991761       0.004
   0.00000000  0.03876986  0.03991761       0.004
   0.00000000  0.03578756  0.03991761       0.004
   0.00000000  0.03280527  0.03991761       0.004
   0.00000000  0.02982297  0.03991761       0.004
   0.00000000  0.02684067  0.03991761       0.004
   0.00000000  0.02385838  0.03991761       0.004
   0.00000000  0.02087608  0.03991761       0.004
   0.00000000  0.01789378  0.03991761       0.004
   0.00000000  0.01491148  0.03991761       0.004
   0.00000000  0.01192919  0.03991761       0.004
   0.00000000  0.00894689  0.03991761       0.004
   0.00000000  0.00596459  0.03991761       0.004
   0.00000000  0.00298230  0.03991761       0.004
   0.00000000  0.00000000  0.03991761       0.004
   0.05763622  0.00000000  0.00000000       0.004
   0.05763622  0.00000000  0.00210093       0.004
   0.05763622  0.00000000  0.00420185       0.004
   0.05763622  0.00000000  0.00630278       0.004
   0.05763622  0.00000000  0.00840371       0.004
   0.05763622  0.00000000  0.01050463       0.004
   0.05763622  0.00000000  0.01260556       0.004
   0.05763622  0.00000000  0.01470649       0.004
   0.05763622  0.00000000  0.01680742       0.004
   0.05763622  0.00000000  0.01890834       0.004
   0.05763622  0.00000000  0.02100927       0.004
   0.05763622  0.00000000  0.02311020       0.004
   0.05763622  0.00000000  0.02521112       0.004
   0.05763622  0.00000000  0.02731205       0.004
   0.05763622  0.00000000  0.02941298       0.004
   0.05763622  0.00000000  0.03151390       0.004
   0.05763622  0.00000000  0.03361483       0.004
   0.05763622  0.00000000  0.03571576       0.004
   0.05763622  0.00000000  0.03781668       0.004
   0.05763622  0.00000000  0.03991761       0.004
   0.00000000  0.05666364  0.00000000       0.004
   0.00000000  0.05666364  0.00210093       0.004
   0.00000000  0.05666364  0.00420185       0.004
   0.00000000  0.05666364  0.00630278       0.004
   0.00000000  0.05666364  0.00840371       0.004
   0.00000000  0.05666364  0.01050463       0.004
   0.00000000  0.05666364  0.01260556       0.004
   0.00000000  0.05666364  0.01470649       0.004
   0.00000000  0.05666364  0.01680742       0.004
   0.00000000  0.05666364  0.01890834       0.004
   0.00000000  0.05666364  0.02100927       0.004
   0.00000000  0.05666364  0.02311020       0.004
   0.00000000  0.05666364  0.02521112       0.004
   0.00000000  0.05666364  0.02731205       0.004
   0.00000000  0.05666364  0.02941298       0.004
   0.00000000  0.05666364  0.03151390       0.004
   0.00000000  0.05666364  0.03361483       0.004
   0.00000000  0.05666364  0.03571576       0.004
   0.00000000  0.05666364  0.03781668       0.004
   0.00000000  0.05666364  0.03991761       0.004
   0.05763622  0.05666364  0.00000000       0.004
   0.05763622  0.05666364  0.00210093       0.004
   0.05763622  0.05666364  0.00420185       0.004
   0.05763622  0.05666364  0.00630278       0.004
   0.05763622  0.05666364  0.00840371       0.004
   0.05763622  0.05666364  0.01050463       0.004
   0.05763622  0.05666364  0.01260556       0.004
   0.05763622  0.05666364  0.01470649       0.004
   0.05763622  0.05666364  0.01680742       0.004
   0.05763622  0.05666364  0.01890834       0.004
   0.05763622  0.05666364  0.02100927       0.004
   0.05763622  0.05666364  0.02311020       0.004
   0.05763622  0.05666364  0.02521112       0.004
   0.05763622  0.05666364  0.02731205       0.004
   0.05763622  0.05666364  0.02941298       0.004
   0.05763622  0.05666364  0.03151390       0.004
   0.05763622  0.05666364  0.03361483       0.004
   0.05763622  0.05666364  0.03571576       0.004
   0.05763622  0.05666364  0.03781668       0.004
   0.05763622  0.05666364  0.03991761       0.004
 
 k-points in reciprocal lattice and weights: K-Path Generated by VASPKIT.            
   0.00000000  0.00000000  0.00000000       0.004
   0.02631579  0.00000000  0.00000000       0.004
   0.05263158  0.00000000  0.00000000       0.004
   0.07894737  0.00000000  0.00000000       0.004
   0.10526316  0.00000000  0.00000000       0.004
   0.13157895  0.00000000  0.00000000       0.004
   0.15789474  0.00000000  0.00000000       0.004
   0.18421053  0.00000000  0.00000000       0.004
   0.21052632  0.00000000  0.00000000       0.004
   0.23684211  0.00000000  0.00000000       0.004
   0.26315789  0.00000000  0.00000000       0.004
   0.28947368  0.00000000  0.00000000       0.004
   0.31578947  0.00000000  0.00000000       0.004
   0.34210526  0.00000000  0.00000000       0.004
   0.36842105  0.00000000  0.00000000       0.004
   0.39473684  0.00000000  0.00000000       0.004
   0.42105263  0.00000000  0.00000000       0.004
   0.44736842  0.00000000  0.00000000       0.004
   0.47368421  0.00000000  0.00000000       0.004
   0.50000000  0.00000000  0.00000000       0.004
   0.50000000  0.00000000  0.00000000       0.004
   0.50000000  0.02631579  0.00000000       0.004
   0.50000000  0.05263158  0.00000000       0.004
   0.50000000  0.07894737  0.00000000       0.004
   0.50000000  0.10526316  0.00000000       0.004
   0.50000000  0.13157895  0.00000000       0.004
   0.50000000  0.15789474  0.00000000       0.004
   0.50000000  0.18421053  0.00000000       0.004
   0.50000000  0.21052632  0.00000000       0.004
   0.50000000  0.23684211  0.00000000       0.004
   0.50000000  0.26315789  0.00000000       0.004
   0.50000000  0.28947368  0.00000000       0.004
   0.50000000  0.31578947  0.00000000       0.004
   0.50000000  0.34210526  0.00000000       0.004
   0.50000000  0.36842105  0.00000000       0.004
   0.50000000  0.39473684  0.00000000       0.004
   0.50000000  0.42105263  0.00000000       0.004
   0.50000000  0.44736842  0.00000000       0.004
   0.50000000  0.47368421  0.00000000       0.004
   0.50000000  0.50000000  0.00000000       0.004
   0.50000000  0.50000000  0.00000000       0.004
   0.47368421  0.50000000  0.00000000       0.004
   0.44736842  0.50000000  0.00000000       0.004
   0.42105263  0.50000000  0.00000000       0.004
   0.39473684  0.50000000  0.00000000       0.004
   0.36842105  0.50000000  0.00000000       0.004
   0.34210526  0.50000000  0.00000000       0.004
   0.31578947  0.50000000  0.00000000       0.004
   0.28947368  0.50000000  0.00000000       0.004
   0.26315789  0.50000000  0.00000000       0.004
   0.23684211  0.50000000  0.00000000       0.004
   0.21052632  0.50000000  0.00000000       0.004
   0.18421053  0.50000000  0.00000000       0.004
   0.15789474  0.50000000  0.00000000       0.004
   0.13157895  0.50000000  0.00000000       0.004
   0.10526316  0.50000000  0.00000000       0.004
   0.07894737  0.50000000  0.00000000       0.004
   0.05263158  0.50000000  0.00000000       0.004
   0.02631579  0.50000000  0.00000000       0.004
   0.00000000  0.50000000  0.00000000       0.004
   0.00000000  0.50000000  0.00000000       0.004
   0.00000000  0.47368421  0.00000000       0.004
   0.00000000  0.44736842  0.00000000       0.004
   0.00000000  0.42105263  0.00000000       0.004
   0.00000000  0.39473684  0.00000000       0.004
   0.00000000  0.36842105  0.00000000       0.004
   0.00000000  0.34210526  0.00000000       0.004
   0.00000000  0.31578947  0.00000000       0.004
   0.00000000  0.28947368  0.00000000       0.004
   0.00000000  0.26315789  0.00000000       0.004
   0.00000000  0.23684211  0.00000000       0.004
   0.00000000  0.21052632  0.00000000       0.004
   0.00000000  0.18421053  0.00000000       0.004
   0.00000000  0.15789474  0.00000000       0.004
   0.00000000  0.13157895  0.00000000       0.004
   0.00000000  0.10526316  0.00000000       0.004
   0.00000000  0.07894737  0.00000000       0.004
   0.00000000  0.05263158  0.00000000       0.004
   0.00000000  0.02631579  0.00000000       0.004
   0.00000000  0.00000000  0.00000000       0.004
   0.00000000  0.00000000  0.00000000       0.004
   0.00000000  0.00000000  0.02631579       0.004
   0.00000000  0.00000000  0.05263158       0.004
   0.00000000  0.00000000  0.07894737       0.004
   0.00000000  0.00000000  0.10526316       0.004
   0.00000000  0.00000000  0.13157895       0.004
   0.00000000  0.00000000  0.15789474       0.004
   0.00000000  0.00000000  0.18421053       0.004
   0.00000000  0.00000000  0.21052632       0.004
   0.00000000  0.00000000  0.23684211       0.004
   0.00000000  0.00000000  0.26315789       0.004
   0.00000000  0.00000000  0.28947368       0.004
   0.00000000  0.00000000  0.31578947       0.004
   0.00000000  0.00000000  0.34210526       0.004
   0.00000000  0.00000000  0.36842105       0.004
   0.00000000  0.00000000  0.39473684       0.004
   0.00000000  0.00000000  0.42105263       0.004
   0.00000000  0.00000000  0.44736842       0.004
   0.00000000  0.00000000  0.47368421       0.004
   0.00000000  0.00000000  0.50000000       0.004
   0.00000000  0.00000000  0.50000000       0.004
   0.02631579  0.00000000  0.50000000       0.004
   0.05263158  0.00000000  0.50000000       0.004
   0.07894737  0.00000000  0.50000000       0.004
   0.10526316  0.00000000  0.50000000       0.004
   0.13157895  0.00000000  0.50000000       0.004
   0.15789474  0.00000000  0.50000000       0.004
   0.18421053  0.00000000  0.50000000       0.004
   0.21052632  0.00000000  0.50000000       0.004
   0.23684211  0.00000000  0.50000000       0.004
   0.26315789  0.00000000  0.50000000       0.004
   0.28947368  0.00000000  0.50000000       0.004
   0.31578947  0.00000000  0.50000000       0.004
   0.34210526  0.00000000  0.50000000       0.004
   0.36842105  0.00000000  0.50000000       0.004
   0.39473684  0.00000000  0.50000000       0.004
   0.42105263  0.00000000  0.50000000       0.004
   0.44736842  0.00000000  0.50000000       0.004
   0.47368421  0.00000000  0.50000000       0.004
   0.50000000  0.00000000  0.50000000       0.004
   0.50000000  0.00000000  0.50000000       0.004
   0.50000000  0.02631579  0.50000000       0.004
   0.50000000  0.05263158  0.50000000       0.004
   0.50000000  0.07894737  0.50000000       0.004
   0.50000000  0.10526316  0.50000000       0.004
   0.50000000  0.13157895  0.50000000       0.004
   0.50000000  0.15789474  0.50000000       0.004
   0.50000000  0.18421053  0.50000000       0.004
   0.50000000  0.21052632  0.50000000       0.004
   0.50000000  0.23684211  0.50000000       0.004
   0.50000000  0.26315789  0.50000000       0.004
   0.50000000  0.28947368  0.50000000       0.004
   0.50000000  0.31578947  0.50000000       0.004
   0.50000000  0.34210526  0.50000000       0.004
   0.50000000  0.36842105  0.50000000       0.004
   0.50000000  0.39473684  0.50000000       0.004
   0.50000000  0.42105263  0.50000000       0.004
   0.50000000  0.44736842  0.50000000       0.004
   0.50000000  0.47368421  0.50000000       0.004
   0.50000000  0.50000000  0.50000000       0.004
   0.50000000  0.50000000  0.50000000       0.004
   0.47368421  0.50000000  0.50000000       0.004
   0.44736842  0.50000000  0.50000000       0.004
   0.42105263  0.50000000  0.50000000       0.004
   0.39473684  0.50000000  0.50000000       0.004
   0.36842105  0.50000000  0.50000000       0.004
   0.34210526  0.50000000  0.50000000       0.004
   0.31578947  0.50000000  0.50000000       0.004
   0.28947368  0.50000000  0.50000000       0.004
   0.26315789  0.50000000  0.50000000       0.004
   0.23684211  0.50000000  0.50000000       0.004
   0.21052632  0.50000000  0.50000000       0.004
   0.18421053  0.50000000  0.50000000       0.004
   0.15789474  0.50000000  0.50000000       0.004
   0.13157895  0.50000000  0.50000000       0.004
   0.10526316  0.50000000  0.50000000       0.004
   0.07894737  0.50000000  0.50000000       0.004
   0.05263158  0.50000000  0.50000000       0.004
   0.02631579  0.50000000  0.50000000       0.004
   0.00000000  0.50000000  0.50000000       0.004
   0.00000000  0.50000000  0.50000000       0.004
   0.00000000  0.47368421  0.50000000       0.004
   0.00000000  0.44736842  0.50000000       0.004
   0.00000000  0.42105263  0.50000000       0.004
   0.00000000  0.39473684  0.50000000       0.004
   0.00000000  0.36842105  0.50000000       0.004
   0.00000000  0.34210526  0.50000000       0.004
   0.00000000  0.31578947  0.50000000       0.004
   0.00000000  0.28947368  0.50000000       0.004
   0.00000000  0.26315789  0.50000000       0.004
   0.00000000  0.23684211  0.50000000       0.004
   0.00000000  0.21052632  0.50000000       0.004
   0.00000000  0.18421053  0.50000000       0.004
   0.00000000  0.15789474  0.50000000       0.004
   0.00000000  0.13157895  0.50000000       0.004
   0.00000000  0.10526316  0.50000000       0.004
   0.00000000  0.07894737  0.50000000       0.004
   0.00000000  0.05263158  0.50000000       0.004
   0.00000000  0.02631579  0.50000000       0.004
   0.00000000  0.00000000  0.50000000       0.004
   0.50000000  0.00000000  0.00000000       0.004
   0.50000000  0.00000000  0.02631579       0.004
   0.50000000  0.00000000  0.05263158       0.004
   0.50000000  0.00000000  0.07894737       0.004
   0.50000000  0.00000000  0.10526316       0.004
   0.50000000  0.00000000  0.13157895       0.004
   0.50000000  0.00000000  0.15789474       0.004
   0.50000000  0.00000000  0.18421053       0.004
   0.50000000  0.00000000  0.21052632       0.004
   0.50000000  0.00000000  0.23684211       0.004
   0.50000000  0.00000000  0.26315789       0.004
   0.50000000  0.00000000  0.28947368       0.004
   0.50000000  0.00000000  0.31578947       0.004
   0.50000000  0.00000000  0.34210526       0.004
   0.50000000  0.00000000  0.36842105       0.004
   0.50000000  0.00000000  0.39473684       0.004
   0.50000000  0.00000000  0.42105263       0.004
   0.50000000  0.00000000  0.44736842       0.004
   0.50000000  0.00000000  0.47368421       0.004
   0.50000000  0.00000000  0.50000000       0.004
   0.00000000  0.50000000  0.00000000       0.004
   0.00000000  0.50000000  0.02631579       0.004
   0.00000000  0.50000000  0.05263158       0.004
   0.00000000  0.50000000  0.07894737       0.004
   0.00000000  0.50000000  0.10526316       0.004
   0.00000000  0.50000000  0.13157895       0.004
   0.00000000  0.50000000  0.15789474       0.004
   0.00000000  0.50000000  0.18421053       0.004
   0.00000000  0.50000000  0.21052632       0.004
   0.00000000  0.50000000  0.23684211       0.004
   0.00000000  0.50000000  0.26315789       0.004
   0.00000000  0.50000000  0.28947368       0.004
   0.00000000  0.50000000  0.31578947       0.004
   0.00000000  0.50000000  0.34210526       0.004
   0.00000000  0.50000000  0.36842105       0.004
   0.00000000  0.50000000  0.39473684       0.004
   0.00000000  0.50000000  0.42105263       0.004
   0.00000000  0.50000000  0.44736842       0.004
   0.00000000  0.50000000  0.47368421       0.004
   0.00000000  0.50000000  0.50000000       0.004
   0.50000000  0.50000000  0.00000000       0.004
   0.50000000  0.50000000  0.02631579       0.004
   0.50000000  0.50000000  0.05263158       0.004
   0.50000000  0.50000000  0.07894737       0.004
   0.50000000  0.50000000  0.10526316       0.004
   0.50000000  0.50000000  0.13157895       0.004
   0.50000000  0.50000000  0.15789474       0.004
   0.50000000  0.50000000  0.18421053       0.004
   0.50000000  0.50000000  0.21052632       0.004
   0.50000000  0.50000000  0.23684211       0.004
   0.50000000  0.50000000  0.26315789       0.004
   0.50000000  0.50000000  0.28947368       0.004
   0.50000000  0.50000000  0.31578947       0.004
   0.50000000  0.50000000  0.34210526       0.004
   0.50000000  0.50000000  0.36842105       0.004
   0.50000000  0.50000000  0.39473684       0.004
   0.50000000  0.50000000  0.42105263       0.004
   0.50000000  0.50000000  0.44736842       0.004
   0.50000000  0.50000000  0.47368421       0.004
   0.50000000  0.50000000  0.50000000       0.004
 
 position of ions in fractional coordinates (direct lattice) 
   0.19227051  0.30587406  0.54028163
   0.80772943  0.69412589  0.45971837
   0.69227057  0.19412594  0.45971837
   0.30772949  0.80587411  0.54028163
   0.80772943  0.69412589  0.04028164
   0.19227051  0.30587406  0.95971837
   0.30772949  0.80587411  0.95971837
   0.69227057  0.19412594  0.04028164
   0.91757977  0.00007447  0.75000002
   0.08242017  0.99992553  0.25000000
   0.41757982  0.49992553  0.25000000
   0.58242018  0.50007447  0.75000002
   0.00000000  0.00000000  0.50000000
   0.50000000  0.50000000  0.50000000
   0.00000000  0.00000000  0.00000000
   0.50000000  0.50000000  0.00000000
   0.97805666  0.42438825  0.25000000
   0.02194334  0.57561175  0.75000002
   0.47805666  0.07561174  0.75000002
   0.52194334  0.92438825  0.25000000
 
 position of ions in cartesian coordinates  (Angst):
   1.66796599  2.69903280  6.76745953
   7.00713386  6.12496708  5.75834022
   6.00551663  1.71296738  5.75834022
   2.66958417  7.11103345  6.76745953
   7.00713386  6.12496708  0.50455974
   1.66796599  2.69903280 12.02124010
   2.66958417  7.11103345 12.02124010
   6.00551663  1.71296738  0.50455974
   7.96009654  0.00065714  9.39435005
   0.71500325  8.82334327  3.13144994
   3.62254686  4.41134304  3.13144994
   5.05255347  4.41265732  9.39435005
   0.00000000  0.00000000  6.26289988
   4.33755016  4.41200018  6.26289988
   0.00000000  0.00000000  0.00000000
   4.33755016  4.41200018  0.00000000
   8.48473964  3.74480210  3.13144994
   0.19036067  5.07919826  9.39435005
   4.14718948  0.66719802  9.39435005
   4.52791085  8.15680228  3.13144994
 
 Euler angles ALPHA=     0.0000000  BETA=     0.0000000

 transformation matrix from SAXIS to cartesian coordinates
 ---------------------------------------------------------
     1.0000000 m_x     0.0000000 m_y     0.0000000 m_z
     0.0000000 m_x     1.0000000 m_y     0.0000000 m_z
     0.0000000 m_x     0.0000000 m_y     1.0000000 m_z

 transformation matrix from cartesian coordinates to SAXIS
 ---------------------------------------------------------
     1.0000000 m_x     0.0000000 m_y     0.0000000 m_z
     0.0000000 m_x     1.0000000 m_y     0.0000000 m_z
     0.0000000 m_x     0.0000000 m_y     1.0000000 m_z




--------------------------------------------------------------------------------------------------------


 k-point  1 :   0.0000 0.0000 0.0000  plane waves:   41574
 k-point  2 :   0.0263 0.0000 0.0000  plane waves:   41568
 k-point  3 :   0.0526 0.0000 0.0000  plane waves:   41580
 k-point  4 :   0.0789 0.0000 0.0000  plane waves:   41592
 k-point  5 :   0.1053 0.0000 0.0000  plane waves:   41608
 k-point  6 :   0.1316 0.0000 0.0000  plane waves:   41612
 k-point  7 :   0.1579 0.0000 0.0000  plane waves:   41596
 k-point  8 :   0.1842 0.0000 0.0000  plane waves:   41612
 k-point  9 :   0.2105 0.0000 0.0000  plane waves:   41660
 k-point 10 :   0.2368 0.0000 0.0000  plane waves:   41676
 k-point 11 :   0.2632 0.0000 0.0000  plane waves:   41656
 k-point 12 :   0.2895 0.0000 0.0000  plane waves:   41656
 k-point 13 :   0.3158 0.0000 0.0000  plane waves:   41620
 k-point 14 :   0.3421 0.0000 0.0000  plane waves:   41572
 k-point 15 :   0.3684 0.0000 0.0000  plane waves:   41580
 k-point 16 :   0.3947 0.0000 0.0000  plane waves:   41548
 k-point 17 :   0.4211 0.0000 0.0000  plane waves:   41544
 k-point 18 :   0.4474 0.0000 0.0000  plane waves:   41528
 k-point 19 :   0.4737 0.0000 0.0000  plane waves:   41500
 k-point 20 :   0.5000 0.0000 0.0000  plane waves:   41508
 k-point 21 :   0.5000 0.0000 0.0000  plane waves:   41508
 k-point 22 :   0.5000 0.0263 0.0000  plane waves:   41500
 k-point 23 :   0.5000 0.0526 0.0000  plane waves:   41472
 k-point 24 :   0.5000 0.0789 0.0000  plane waves:   41484
 k-point 25 :   0.5000 0.1053 0.0000  plane waves:   41536
 k-point 26 :   0.5000 0.1316 0.0000  plane waves:   41528
 k-point 27 :   0.5000 0.1579 0.0000  plane waves:   41568
 k-point 28 :   0.5000 0.1842 0.0000  plane waves:   41548
 k-point 29 :   0.5000 0.2105 0.0000  plane waves:   41548
 k-point 30 :   0.5000 0.2368 0.0000  plane waves:   41568
 k-point 31 :   0.5000 0.2632 0.0000  plane waves:   41584
 k-point 32 :   0.5000 0.2895 0.0000  plane waves:   41608
 k-point 33 :   0.5000 0.3158 0.0000  plane waves:   41632
 k-point 34 :   0.5000 0.3421 0.0000  plane waves:   41612
 k-point 35 :   0.5000 0.3684 0.0000  plane waves:   41636
 k-point 36 :   0.5000 0.3947 0.0000  plane waves:   41660
 k-point 37 :   0.5000 0.4211 0.0000  plane waves:   41644
 k-point 38 :   0.5000 0.4474 0.0000  plane waves:   41664
 k-point 39 :   0.5000 0.4737 0.0000  plane waves:   41664
 k-point 40 :   0.5000 0.5000 0.0000  plane waves:   41624
 k-point 41 :   0.5000 0.5000 0.0000  plane waves:   41624
 k-point 42 :   0.4737 0.5000 0.0000  plane waves:   41656
 k-point 43 :   0.4474 0.5000 0.0000  plane waves:   41628
 k-point 44 :   0.4211 0.5000 0.0000  plane waves:   41592
 k-point 45 :   0.3947 0.5000 0.0000  plane waves:   41580
 k-point 46 :   0.3684 0.5000 0.0000  plane waves:   41600
 k-point 47 :   0.3421 0.5000 0.0000  plane waves:   41592
 k-point 48 :   0.3158 0.5000 0.0000  plane waves:   41600
 k-point 49 :   0.2895 0.5000 0.0000  plane waves:   41576
 k-point 50 :   0.2632 0.5000 0.0000  plane waves:   41584
 k-point 51 :   0.2368 0.5000 0.0000  plane waves:   41532
 k-point 52 :   0.2105 0.5000 0.0000  plane waves:   41500
 k-point 53 :   0.1842 0.5000 0.0000  plane waves:   41552
 k-point 54 :   0.1579 0.5000 0.0000  plane waves:   41560
 k-point 55 :   0.1316 0.5000 0.0000  plane waves:   41516
 k-point 56 :   0.1053 0.5000 0.0000  plane waves:   41528
 k-point 57 :   0.0789 0.5000 0.0000  plane waves:   41544
 k-point 58 :   0.0526 0.5000 0.0000  plane waves:   41496
 k-point 59 :   0.0263 0.5000 0.0000  plane waves:   41480
 k-point 60 :   0.0000 0.5000 0.0000  plane waves:   41476
 k-point 61 :   0.0000 0.5000 0.0000  plane waves:   41476
 k-point 62 :   0.0000 0.4737 0.0000  plane waves:   41440
 k-point 63 :   0.0000 0.4474 0.0000  plane waves:   41440
 k-point 64 :   0.0000 0.4211 0.0000  plane waves:   41476
 k-point 65 :   0.0000 0.3947 0.0000  plane waves:   41480
 k-point 66 :   0.0000 0.3684 0.0000  plane waves:   41464
 k-point 67 :   0.0000 0.3421 0.0000  plane waves:   41460
 k-point 68 :   0.0000 0.3158 0.0000  plane waves:   41500
 k-point 69 :   0.0000 0.2895 0.0000  plane waves:   41496
 k-point 70 :   0.0000 0.2632 0.0000  plane waves:   41504
 k-point 71 :   0.0000 0.2368 0.0000  plane waves:   41522
 k-point 72 :   0.0000 0.2105 0.0000  plane waves:   41602
 k-point 73 :   0.0000 0.1842 0.0000  plane waves:   41602
 k-point 74 :   0.0000 0.1579 0.0000  plane waves:   41578
 k-point 75 :   0.0000 0.1316 0.0000  plane waves:   41582
 k-point 76 :   0.0000 0.1053 0.0000  plane waves:   41602
 k-point 77 :   0.0000 0.0789 0.0000  plane waves:   41598
 k-point 78 :   0.0000 0.0526 0.0000  plane waves:   41582
 k-point 79 :   0.0000 0.0263 0.0000  plane waves:   41586
 k-point 80 :   0.0000 0.0000 0.0000  plane waves:   41574
 k-point 81 :   0.0000 0.0000 0.0000  plane waves:   41574
 k-point 82 :   0.0000 0.0000 0.0263  plane waves:   41570
 k-point 83 :   0.0000 0.0000 0.0526  plane waves:   41578
 k-point 84 :   0.0000 0.0000 0.0789  plane waves:   41598
 k-point 85 :   0.0000 0.0000 0.1053  plane waves:   41594
 k-point 86 :   0.0000 0.0000 0.1316  plane waves:   41582
 k-point 87 :   0.0000 0.0000 0.1579  plane waves:   41582
 k-point 88 :   0.0000 0.0000 0.1842  plane waves:   41574
 k-point 89 :   0.0000 0.0000 0.2105  plane waves:   41554
 k-point 90 :   0.0000 0.0000 0.2368  plane waves:   41550
 k-point 91 :   0.0000 0.0000 0.2632  plane waves:   41542
 k-point 92 :   0.0000 0.0000 0.2895  plane waves:   41538
 k-point 93 :   0.0000 0.0000 0.3158  plane waves:   41546
 k-point 94 :   0.0000 0.0000 0.3421  plane waves:   41548
 k-point 95 :   0.0000 0.0000 0.3684  plane waves:   41540
 k-point 96 :   0.0000 0.0000 0.3947  plane waves:   41492
 k-point 97 :   0.0000 0.0000 0.4211  plane waves:   41492
 k-point 98 :   0.0000 0.0000 0.4474  plane waves:   41436
 k-point 99 :   0.0000 0.0000 0.4737  plane waves:   41424
 k-point ** :   0.0000 0.0000 0.5000  plane waves:   41432
 k-point ** :   0.0000 0.0000 0.5000  plane waves:   41432
 k-point ** :   0.0263 0.0000 0.5000  plane waves:   41444
 k-point ** :   0.0526 0.0000 0.5000  plane waves:   41496
 k-point ** :   0.0789 0.0000 0.5000  plane waves:   41468
 k-point ** :   0.1053 0.0000 0.5000  plane waves:   41496
 k-point ** :   0.1316 0.0000 0.5000  plane waves:   41484
 k-point ** :   0.1579 0.0000 0.5000  plane waves:   41476
 k-point ** :   0.1842 0.0000 0.5000  plane waves:   41444
 k-point ** :   0.2105 0.0000 0.5000  plane waves:   41456
 k-point ** :   0.2368 0.0000 0.5000  plane waves:   41448
 k-point ** :   0.2632 0.0000 0.5000  plane waves:   41484
 k-point ** :   0.2895 0.0000 0.5000  plane waves:   41528
 k-point ** :   0.3158 0.0000 0.5000  plane waves:   41572
 k-point ** :   0.3421 0.0000 0.5000  plane waves:   41616
 k-point ** :   0.3684 0.0000 0.5000  plane waves:   41616
 k-point ** :   0.3947 0.0000 0.5000  plane waves:   41592
 k-point ** :   0.4211 0.0000 0.5000  plane waves:   41600
 k-point ** :   0.4474 0.0000 0.5000  plane waves:   41608
 k-point ** :   0.4737 0.0000 0.5000  plane waves:   41604
 k-point ** :   0.5000 0.0000 0.5000  plane waves:   41608
 k-point ** :   0.5000 0.0000 0.5000  plane waves:   41608
 k-point ** :   0.5000 0.0263 0.5000  plane waves:   41600
 k-point ** :   0.5000 0.0526 0.5000  plane waves:   41592
 k-point ** :   0.5000 0.0789 0.5000  plane waves:   41608
 k-point ** :   0.5000 0.1053 0.5000  plane waves:   41576
 k-point ** :   0.5000 0.1316 0.5000  plane waves:   41560
 k-point ** :   0.5000 0.1579 0.5000  plane waves:   41592
 k-point ** :   0.5000 0.1842 0.5000  plane waves:   41576
 k-point ** :   0.5000 0.2105 0.5000  plane waves:   41600
 k-point ** :   0.5000 0.2368 0.5000  plane waves:   41584
 k-point ** :   0.5000 0.2632 0.5000  plane waves:   41568
 k-point ** :   0.5000 0.2895 0.5000  plane waves:   41592
 k-point ** :   0.5000 0.3158 0.5000  plane waves:   41584
 k-point ** :   0.5000 0.3421 0.5000  plane waves:   41576
 k-point ** :   0.5000 0.3684 0.5000  plane waves:   41632
 k-point ** :   0.5000 0.3947 0.5000  plane waves:   41600
 k-point ** :   0.5000 0.4211 0.5000  plane waves:   41608
 k-point ** :   0.5000 0.4474 0.5000  plane waves:   41608
 k-point ** :   0.5000 0.4737 0.5000  plane waves:   41632
 k-point ** :   0.5000 0.5000 0.5000  plane waves:   41632
 k-point ** :   0.5000 0.5000 0.5000  plane waves:   41632
 k-point ** :   0.4737 0.5000 0.5000  plane waves:   41640
 k-point ** :   0.4474 0.5000 0.5000  plane waves:   41672
 k-point ** :   0.4211 0.5000 0.5000  plane waves:   41656
 k-point ** :   0.3947 0.5000 0.5000  plane waves:   41632
 k-point ** :   0.3684 0.5000 0.5000  plane waves:   41600
 k-point ** :   0.3421 0.5000 0.5000  plane waves:   41656
 k-point ** :   0.3158 0.5000 0.5000  plane waves:   41640
 k-point ** :   0.2895 0.5000 0.5000  plane waves:   41632
 k-point ** :   0.2632 0.5000 0.5000  plane waves:   41592
 k-point ** :   0.2368 0.5000 0.5000  plane waves:   41600
 k-point ** :   0.2105 0.5000 0.5000  plane waves:   41616
 k-point ** :   0.1842 0.5000 0.5000  plane waves:   41576
 k-point ** :   0.1579 0.5000 0.5000  plane waves:   41536
 k-point ** :   0.1316 0.5000 0.5000  plane waves:   41520
 k-point ** :   0.1053 0.5000 0.5000  plane waves:   41512
 k-point ** :   0.0789 0.5000 0.5000  plane waves:   41512
 k-point ** :   0.0526 0.5000 0.5000  plane waves:   41520
 k-point ** :   0.0263 0.5000 0.5000  plane waves:   41512
 k-point ** :   0.0000 0.5000 0.5000  plane waves:   41456
 k-point ** :   0.0000 0.5000 0.5000  plane waves:   41456
 k-point ** :   0.0000 0.4737 0.5000  plane waves:   41504
 k-point ** :   0.0000 0.4474 0.5000  plane waves:   41524
 k-point ** :   0.0000 0.4211 0.5000  plane waves:   41544
 k-point ** :   0.0000 0.3947 0.5000  plane waves:   41536
 k-point ** :   0.0000 0.3684 0.5000  plane waves:   41544
 k-point ** :   0.0000 0.3421 0.5000  plane waves:   41520
 k-point ** :   0.0000 0.3158 0.5000  plane waves:   41524
 k-point ** :   0.0000 0.2895 0.5000  plane waves:   41524
 k-point ** :   0.0000 0.2632 0.5000  plane waves:   41528
 k-point ** :   0.0000 0.2368 0.5000  plane waves:   41528
 k-point ** :   0.0000 0.2105 0.5000  plane waves:   41556
 k-point ** :   0.0000 0.1842 0.5000  plane waves:   41572
 k-point ** :   0.0000 0.1579 0.5000  plane waves:   41560
 k-point ** :   0.0000 0.1316 0.5000  plane waves:   41552
 k-point ** :   0.0000 0.1053 0.5000  plane waves:   41480
 k-point ** :   0.0000 0.0789 0.5000  plane waves:   41512
 k-point ** :   0.0000 0.0526 0.5000  plane waves:   41432
 k-point ** :   0.0000 0.0263 0.5000  plane waves:   41436
 k-point ** :   0.0000 0.0000 0.5000  plane waves:   41432
 k-point ** :   0.5000 0.0000 0.0000  plane waves:   41508
 k-point ** :   0.5000 0.0000 0.0263  plane waves:   41480
 k-point ** :   0.5000 0.0000 0.0526  plane waves:   41496
 k-point ** :   0.5000 0.0000 0.0789  plane waves:   41532
 k-point ** :   0.5000 0.0000 0.1053  plane waves:   41568
 k-point ** :   0.5000 0.0000 0.1316  plane waves:   41568
 k-point ** :   0.5000 0.0000 0.1579  plane waves:   41576
 k-point ** :   0.5000 0.0000 0.1842  plane waves:   41600
 k-point ** :   0.5000 0.0000 0.2105  plane waves:   41616
 k-point ** :   0.5000 0.0000 0.2368  plane waves:   41608
 k-point ** :   0.5000 0.0000 0.2632  plane waves:   41632
 k-point ** :   0.5000 0.0000 0.2895  plane waves:   41624
 k-point ** :   0.5000 0.0000 0.3158  plane waves:   41648
 k-point ** :   0.5000 0.0000 0.3421  plane waves:   41620
 k-point ** :   0.5000 0.0000 0.3684  plane waves:   41596
 k-point ** :   0.5000 0.0000 0.3947  plane waves:   41580
 k-point ** :   0.5000 0.0000 0.4211  plane waves:   41564
 k-point ** :   0.5000 0.0000 0.4474  plane waves:   41588
 k-point ** :   0.5000 0.0000 0.4737  plane waves:   41596
 k-point ** :   0.5000 0.0000 0.5000  plane waves:   41608
 k-point ** :   0.0000 0.5000 0.0000  plane waves:   41476
 k-point ** :   0.0000 0.5000 0.0263  plane waves:   41432
 k-point ** :   0.0000 0.5000 0.0526  plane waves:   41428
 k-point ** :   0.0000 0.5000 0.0789  plane waves:   41468
 k-point ** :   0.0000 0.5000 0.1053  plane waves:   41480
 k-point ** :   0.0000 0.5000 0.1316  plane waves:   41480
 k-point ** :   0.0000 0.5000 0.1579  plane waves:   41464
 k-point ** :   0.0000 0.5000 0.1842  plane waves:   41464
 k-point ** :   0.0000 0.5000 0.2105  plane waves:   41468
 k-point ** :   0.0000 0.5000 0.2368  plane waves:   41452
 k-point ** :   0.0000 0.5000 0.2632  plane waves:   41468
 k-point ** :   0.0000 0.5000 0.2895  plane waves:   41472
 k-point ** :   0.0000 0.5000 0.3158  plane waves:   41460
 k-point ** :   0.0000 0.5000 0.3421  plane waves:   41444
 k-point ** :   0.0000 0.5000 0.3684  plane waves:   41464
 k-point ** :   0.0000 0.5000 0.3947  plane waves:   41492
 k-point ** :   0.0000 0.5000 0.4211  plane waves:   41496
 k-point ** :   0.0000 0.5000 0.4474  plane waves:   41512
 k-point ** :   0.0000 0.5000 0.4737  plane waves:   41472
 k-point ** :   0.0000 0.5000 0.5000  plane waves:   41456
 k-point ** :   0.5000 0.5000 0.0000  plane waves:   41624
 k-point ** :   0.5000 0.5000 0.0263  plane waves:   41656
 k-point ** :   0.5000 0.5000 0.0526  plane waves:   41672
 k-point ** :   0.5000 0.5000 0.0789  plane waves:   41624
 k-point ** :   0.5000 0.5000 0.1053  plane waves:   41616
 k-point ** :   0.5000 0.5000 0.1316  plane waves:   41624
 k-point ** :   0.5000 0.5000 0.1579  plane waves:   41592
 k-point ** :   0.5000 0.5000 0.1842  plane waves:   41616
 k-point ** :   0.5000 0.5000 0.2105  plane waves:   41592
 k-point ** :   0.5000 0.5000 0.2368  plane waves:   41600
 k-point ** :   0.5000 0.5000 0.2632  plane waves:   41616
 k-point ** :   0.5000 0.5000 0.2895  plane waves:   41632
 k-point ** :   0.5000 0.5000 0.3158  plane waves:   41656
 k-point ** :   0.5000 0.5000 0.3421  plane waves:   41640
 k-point ** :   0.5000 0.5000 0.3684  plane waves:   41648
 k-point ** :   0.5000 0.5000 0.3947  plane waves:   41632
 k-point ** :   0.5000 0.5000 0.4211  plane waves:   41632
 k-point ** :   0.5000 0.5000 0.4474  plane waves:   41640
 k-point ** :   0.5000 0.5000 0.4737  plane waves:   41616
 k-point ** :   0.5000 0.5000 0.5000  plane waves:   41632

 maximum and minimum number of plane-waves per node :     41676    41424

 maximum number of plane-waves:     41676
 maximum index in each direction: 
   IXMAX=   15   IYMAX=   15   IZMAX=   21
   IXMIN=  -15   IYMIN=  -15   IZMIN=  -22


 serial   3D FFT for wavefunctions
 parallel 3D FFT for charge:
    minimum data exchange during FFTs selected (reduces bandwidth)


 total amount of memory used by VASP MPI-rank0   886043. kBytes
=======================================================================

   base      :      30000. kBytes
   nonlr-proj:       5300. kBytes
   fftplans  :       9123. kBytes
   grid      :      27525. kBytes
   one-center:       1244. kBytes
   wavefun   :     812851. kBytes
 
     INWAV:  cpu time  113.1788: real time  113.4451
 initial charge density was supplied:
 number of electron     175.9999998 magnetization      -0.0000611     -0.0000610     -0.0000611
 keeping initial charge density in first step


--------------------------------------------------------------------------------------------------------


 Maximum index for non-local projection operator         2576
 Maximum index for augmentation-charges         2033 (set IRDMAX)


--------------------------------------------------------------------------------------------------------


 First call to EWALD:  gamma=   0.180
 Maximum number of real-space cells 3x 3x 2
 Maximum number of reciprocal cells 2x 3x 3

    FEWALD:  cpu time    0.0030: real time    0.0058


--------------------------------------- Iteration      1(   1)  ---------------------------------------


    POTLOK:  cpu time    0.1880: real time    0.2224
    SETDIJ:  cpu time    0.1940: real time    0.2044
     EDDAV:  cpu time  405.9113: real time  407.6767
       DOS:  cpu time    0.0170: real time    0.0288
    --------------------------------------------
      LOOP:  cpu time  406.3102: real time  408.1325

 eigenvalue-minimisations  :144576
 total energy-change (2. order) :-0.4152570E+02  (-0.1297209E+03)
 number of electron     175.9999998 magnetization      -0.0000611     -0.0000610     -0.0000611
 augmentation part      175.9999998 magnetization      -0.0000611     -0.0000610     -0.0000611

 Free energy of the ion-electron system (eV)
  ---------------------------------------------------
  alpha Z        PSCENC =       274.57589780
  Ewald energy   TEWEN  =     -8733.92648156
  -Hartree energ DENC   =     -3545.14505166
  -exchange      EXHF   =         0.00000000
  -V(xc)+E(xc)   XCENC  =        35.90778704
  PAW double counting   =     12716.31831445   -12305.15119399
  entropy T*S    EENTRO =        -0.00000000
  eigenvalues    EBANDS =     -1143.67693956
  atomic energy  EATOM  =     12659.57197118
  Solvation  Ediel_sol  =         0.00000000
  ---------------------------------------------------
  free energy    TOTEN  =       -41.52569629 eV

  energy without entropy =      -41.52569629  energy(sigma->0) =      -41.52569629


--------------------------------------------------------------------------------------------------------




--------------------------------------- Iteration      1(   2)  ---------------------------------------


     EDDAV:  cpu time  391.7344: real time  393.3048
       DOS:  cpu time    0.0130: real time    0.0183
    --------------------------------------------
      LOOP:  cpu time  391.7474: real time  393.3231

 eigenvalue-minimisations  :138144
 total energy-change (2. order) :-0.1820990E+02  (-0.1814665E+02)
 number of electron     175.9999998 magnetization      -0.0000611     -0.0000610     -0.0000611
 augmentation part      175.9999998 magnetization      -0.0000611     -0.0000610     -0.0000611

 Free energy of the ion-electron system (eV)
  ---------------------------------------------------
  alpha Z        PSCENC =       274.57589780
  Ewald energy   TEWEN  =     -8733.92648156
  -Hartree energ DENC   =     -3545.14505166
  -exchange      EXHF   =         0.00000000
  -V(xc)+E(xc)   XCENC  =        35.90778704
  PAW double counting   =     12716.31831445   -12305.15119399
  entropy T*S    EENTRO =        -0.00000000
  eigenvalues    EBANDS =     -1161.88683528
  atomic energy  EATOM  =     12659.57197118
  Solvation  Ediel_sol  =         0.00000000
  ---------------------------------------------------
  free energy    TOTEN  =       -59.73559202 eV

  energy without entropy =      -59.73559202  energy(sigma->0) =      -59.73559202


--------------------------------------------------------------------------------------------------------




--------------------------------------- Iteration      1(   3)  ---------------------------------------


     EDDAV:  cpu time  491.6893: real time  493.3837
       DOS:  cpu time    0.0130: real time    0.0135
    --------------------------------------------
      LOOP:  cpu time  491.7022: real time  493.3971

 eigenvalue-minimisations  :176784
 total energy-change (2. order) :-0.5728823E+00  (-0.5727657E+00)
 number of electron     175.9999998 magnetization      -0.0000611     -0.0000610     -0.0000611
 augmentation part      175.9999998 magnetization      -0.0000611     -0.0000610     -0.0000611

 Free energy of the ion-electron system (eV)
  ---------------------------------------------------
  alpha Z        PSCENC =       274.57589780
  Ewald energy   TEWEN  =     -8733.92648156
  -Hartree energ DENC   =     -3545.14505166
  -exchange      EXHF   =         0.00000000
  -V(xc)+E(xc)   XCENC  =        35.90778704
  PAW double counting   =     12716.31831445   -12305.15119399
  entropy T*S    EENTRO =        -0.00000000
  eigenvalues    EBANDS =     -1162.45971757
  atomic energy  EATOM  =     12659.57197118
  Solvation  Ediel_sol  =         0.00000000
  ---------------------------------------------------
  free energy    TOTEN  =       -60.30847430 eV

  energy without entropy =      -60.30847430  energy(sigma->0) =      -60.30847430


--------------------------------------------------------------------------------------------------------




--------------------------------------- Iteration      1(   4)  ---------------------------------------


     EDDAV:  cpu time  439.9501: real time  441.2534
       DOS:  cpu time    0.0130: real time    0.0138
    --------------------------------------------
      LOOP:  cpu time  439.9641: real time  441.2671

 eigenvalue-minimisations  :157440
 total energy-change (2. order) :-0.1105090E-01  (-0.1105071E-01)
 number of electron     175.9999998 magnetization      -0.0000611     -0.0000610     -0.0000611
 augmentation part      175.9999998 magnetization      -0.0000611     -0.0000610     -0.0000611

 Free energy of the ion-electron system (eV)
  ---------------------------------------------------
  alpha Z        PSCENC =       274.57589780
  Ewald energy   TEWEN  =     -8733.92648156
  -Hartree energ DENC   =     -3545.14505166
  -exchange      EXHF   =         0.00000000
  -V(xc)+E(xc)   XCENC  =        35.90778704
  PAW double counting   =     12716.31831445   -12305.15119399
  entropy T*S    EENTRO =        -0.00000000
  eigenvalues    EBANDS =     -1162.47076847
  atomic energy  EATOM  =     12659.57197118
  Solvation  Ediel_sol  =         0.00000000
  ---------------------------------------------------
  free energy    TOTEN  =       -60.31952520 eV

  energy without entropy =      -60.31952520  energy(sigma->0) =      -60.31952520


--------------------------------------------------------------------------------------------------------




--------------------------------------- Iteration      1(   5)  ---------------------------------------


     EDDAV:  cpu time  498.2263: real time  499.9360
       DOS:  cpu time    0.0140: real time    0.0137
 


 total charge     
 
# of ion       s       p       d       tot
------------------------------------------
    1        1.506   2.799   0.007   4.312
    2        1.506   2.799   0.007   4.312
[...]
    -0.0421587    -0.0467870     0.0000000
 l=   2
     0.0000000    -0.0000026     0.0000000    -0.0000012    -0.0000048
    -0.0000026     0.0000000     0.0000151    -0.0000053    -0.0000011
     0.0000000     0.0000151     0.0000000     0.0000172     0.0000000
    -0.0000012    -0.0000053     0.0000172     0.0000000    -0.0000023
    -0.0000048    -0.0000011     0.0000000    -0.0000023     0.0000000
 l=   3
     0.0000000     0.0000000     0.0000000     0.0000000     0.0000000     0.0000000     0.0000000
     0.0000000     0.0000000     0.0000000     0.0000000     0.0000000     0.0000000     0.0000000
     0.0000000     0.0000000     0.0000000     0.0000000     0.0000000     0.0000000     0.0000000
     0.0000000     0.0000000     0.0000000     0.0000000     0.0000000     0.0000000     0.0000000
     0.0000000     0.0000000     0.0000000     0.0000000     0.0000000     0.0000000     0.0000000
     0.0000000     0.0000000     0.0000000     0.0000000     0.0000000     0.0000000     0.0000000
     0.0000000     0.0000000     0.0000000     0.0000000     0.0000000     0.0000000     0.0000000

 Ion:   10  E_soc:     -0.2717198
 l=   1
     0.0000000    -0.0469291    -0.0421587
    -0.0469291     0.0000000    -0.0467870
    -0.0421587    -0.0467870     0.0000000
 l=   2
     0.0000000    -0.0000026     0.0000000    -0.0000012    -0.0000048
    -0.0000026     0.0000000     0.0000151    -0.0000053    -0.0000011
     0.0000000     0.0000151     0.0000000     0.0000172     0.0000000
    -0.0000012    -0.0000053     0.0000172     0.0000000    -0.0000023
    -0.0000048    -0.0000011     0.0000000    -0.0000023     0.0000000
 l=   3
     0.0000000     0.0000000     0.0000000     0.0000000     0.0000000     0.0000000     0.0000000
     0.0000000     0.0000000     0.0000000     0.0000000     0.0000000     0.0000000     0.0000000
     0.0000000     0.0000000     0.0000000     0.0000000     0.0000000     0.0000000     0.0000000
     0.0000000     0.0000000     0.0000000     0.0000000     0.0000000     0.0000000     0.0000000
     0.0000000     0.0000000     0.0000000     0.0000000     0.0000000     0.0000000     0.0000000
     0.0000000     0.0000000     0.0000000     0.0000000     0.0000000     0.0000000     0.0000000
     0.0000000     0.0000000     0.0000000     0.0000000     0.0000000     0.0000000     0.0000000

 Ion:   11  E_soc:     -0.2717198
 l=   1
     0.0000000    -0.0469291    -0.0421587
    -0.0469291     0.0000000    -0.0467870
    -0.0421587    -0.0467870     0.0000000
 l=   2
     0.0000000    -0.0000026     0.0000000    -0.0000012    -0.0000048
    -0.0000026     0.0000000     0.0000151    -0.0000053    -0.0000011
     0.0000000     0.0000151     0.0000000     0.0000172     0.0000000
    -0.0000012    -0.0000053     0.0000172     0.0000000    -0.0000023
    -0.0000048    -0.0000011     0.0000000    -0.0000023     0.0000000
 l=   3
     0.0000000     0.0000000     0.0000000     0.0000000     0.0000000     0.0000000     0.0000000
     0.0000000     0.0000000     0.0000000     0.0000000     0.0000000     0.0000000     0.0000000
     0.0000000     0.0000000     0.0000000     0.0000000     0.0000000     0.0000000     0.0000000
     0.0000000     0.0000000     0.0000000     0.0000000     0.0000000     0.0000000     0.0000000
     0.0000000     0.0000000     0.0000000     0.0000000     0.0000000     0.0000000     0.0000000
     0.0000000     0.0000000     0.0000000     0.0000000     0.0000000     0.0000000     0.0000000
     0.0000000     0.0000000     0.0000000     0.0000000     0.0000000     0.0000000     0.0000000

 Ion:   12  E_soc:     -0.2717198
 l=   1
     0.0000000    -0.0469291    -0.0421587
    -0.0469291     0.0000000    -0.0467870
    -0.0421587    -0.0467870     0.0000000
 l=   2
     0.0000000    -0.0000026     0.0000000    -0.0000012    -0.0000048
    -0.0000026     0.0000000     0.0000151    -0.0000053    -0.0000011
     0.0000000     0.0000151     0.0000000     0.0000172     0.0000000
    -0.0000012    -0.0000053     0.0000172     0.0000000    -0.0000023
    -0.0000048    -0.0000011     0.0000000    -0.0000023     0.0000000
 l=   3
     0.0000000     0.0000000     0.0000000     0.0000000     0.0000000     0.0000000     0.0000000
     0.0000000     0.0000000     0.0000000     0.0000000     0.0000000     0.0000000     0.0000000
     0.0000000     0.0000000     0.0000000     0.0000000     0.0000000     0.0000000     0.0000000
     0.0000000     0.0000000     0.0000000     0.0000000     0.0000000     0.0000000     0.0000000
     0.0000000     0.0000000     0.0000000     0.0000000     0.0000000     0.0000000     0.0000000
     0.0000000     0.0000000     0.0000000     0.0000000     0.0000000     0.0000000     0.0000000
     0.0000000     0.0000000     0.0000000     0.0000000     0.0000000     0.0000000     0.0000000

 Ion:   13  E_soc:     -0.8207022
 l=   1
     0.0000000    -0.0699228    -0.0692488
    -0.0699228     0.0000000    -0.0699439
    -0.0692488    -0.0699439     0.0000000
 l=   2
     0.0000000    -0.0134147     0.0000000    -0.0134262    -0.0537174
    -0.0134147     0.0000000    -0.0402943    -0.0133512    -0.0133674
     0.0000000    -0.0402943     0.0000000    -0.0403025     0.0000000
    -0.0134262    -0.0133512    -0.0403025     0.0000000    -0.0133618
    -0.0537174    -0.0133674     0.0000000    -0.0133618     0.0000000
 l=   3
     0.0000000     0.0000000     0.0000000     0.0000000     0.0000000     0.0000000     0.0000000
     0.0000000     0.0000000     0.0000000     0.0000000     0.0000000     0.0000000     0.0000000
     0.0000000     0.0000000     0.0000000     0.0000000     0.0000000     0.0000000     0.0000000
     0.0000000     0.0000000     0.0000000     0.0000000     0.0000000     0.0000000     0.0000000
     0.0000000     0.0000000     0.0000000     0.0000000     0.0000000     0.0000000     0.0000000
     0.0000000     0.0000000     0.0000000     0.0000000     0.0000000     0.0000000     0.0000000
     0.0000000     0.0000000     0.0000000     0.0000000     0.0000000     0.0000000     0.0000000

 Ion:   14  E_soc:     -0.8207021
 l=   1
     0.0000000    -0.0699228    -0.0692488
    -0.0699228     0.0000000    -0.0699439
    -0.0692488    -0.0699439     0.0000000
 l=   2
     0.0000000    -0.0134147     0.0000000    -0.0134262    -0.0537174
    -0.0134147     0.0000000    -0.0402943    -0.0133512    -0.0133674
     0.0000000    -0.0402943     0.0000000    -0.0403025     0.0000000
    -0.0134262    -0.0133512    -0.0403025     0.0000000    -0.0133618
    -0.0537174    -0.0133674     0.0000000    -0.0133618     0.0000000
 l=   3
     0.0000000     0.0000000     0.0000000     0.0000000     0.0000000     0.0000000     0.0000000
     0.0000000     0.0000000     0.0000000     0.0000000     0.0000000     0.0000000     0.0000000
     0.0000000     0.0000000     0.0000000     0.0000000     0.0000000     0.0000000     0.0000000
     0.0000000     0.0000000     0.0000000     0.0000000     0.0000000     0.0000000     0.0000000
     0.0000000     0.0000000     0.0000000     0.0000000     0.0000000     0.0000000     0.0000000
     0.0000000     0.0000000     0.0000000     0.0000000     0.0000000     0.0000000     0.0000000
     0.0000000     0.0000000     0.0000000     0.0000000     0.0000000     0.0000000     0.0000000

 Ion:   15  E_soc:     -0.8207017
 l=   1
     0.0000000    -0.0699227    -0.0692488
    -0.0699227     0.0000000    -0.0699438
    -0.0692488    -0.0699438     0.0000000
 l=   2
     0.0000000    -0.0134147     0.0000000    -0.0134262    -0.0537174
    -0.0134147     0.0000000    -0.0402943    -0.0133512    -0.0133674
     0.0000000    -0.0402943     0.0000000    -0.0403025     0.0000000
    -0.0134262    -0.0133512    -0.0403025     0.0000000    -0.0133618
    -0.0537174    -0.0133674     0.0000000    -0.0133618     0.0000000
 l=   3
     0.0000000     0.0000000     0.0000000     0.0000000     0.0000000     0.0000000     0.0000000
     0.0000000     0.0000000     0.0000000     0.0000000     0.0000000     0.0000000     0.0000000
     0.0000000     0.0000000     0.0000000     0.0000000     0.0000000     0.0000000     0.0000000
     0.0000000     0.0000000     0.0000000     0.0000000     0.0000000     0.0000000     0.0000000
     0.0000000     0.0000000     0.0000000     0.0000000     0.0000000     0.0000000     0.0000000
     0.0000000     0.0000000     0.0000000     0.0000000     0.0000000     0.0000000     0.0000000
     0.0000000     0.0000000     0.0000000     0.0000000     0.0000000     0.0000000     0.0000000

 Ion:   16  E_soc:     -0.8207016
 l=   1
     0.0000000    -0.0699227    -0.0692488
    -0.0699227     0.0000000    -0.0699438
    -0.0692488    -0.0699438     0.0000000
 l=   2
     0.0000000    -0.0134147     0.0000000    -0.0134262    -0.0537174
    -0.0134147     0.0000000    -0.0402943    -0.0133512    -0.0133674
     0.0000000    -0.0402943     0.0000000    -0.0403025     0.0000000
    -0.0134262    -0.0133512    -0.0403025     0.0000000    -0.0133618
    -0.0537174    -0.0133674     0.0000000    -0.0133618     0.0000000
 l=   3
     0.0000000     0.0000000     0.0000000     0.0000000     0.0000000     0.0000000     0.0000000
     0.0000000     0.0000000     0.0000000     0.0000000     0.0000000     0.0000000     0.0000000
     0.0000000     0.0000000     0.0000000     0.0000000     0.0000000     0.0000000     0.0000000
     0.0000000     0.0000000     0.0000000     0.0000000     0.0000000     0.0000000     0.0000000
     0.0000000     0.0000000     0.0000000     0.0000000     0.0000000     0.0000000     0.0000000
     0.0000000     0.0000000     0.0000000     0.0000000     0.0000000     0.0000000     0.0000000
     0.0000000     0.0000000     0.0000000     0.0000000     0.0000000     0.0000000     0.0000000

 Ion:   17  E_soc:     -0.2837811
 l=   1
     0.0000000    -0.0472298    -0.0472605
    -0.0472298     0.0000000    -0.0472212
    -0.0472605    -0.0472212     0.0000000
 l=   2
     0.0000000    -0.0000142     0.0000000    -0.0000093    -0.0000518
    -0.0000142     0.0000000    -0.0000400    -0.0000110    -0.0000127
     0.0000000    -0.0000400     0.0000000    -0.0000299     0.0000000
    -0.0000093    -0.0000110    -0.0000299     0.0000000    -0.0000102
    -0.0000518    -0.0000127     0.0000000    -0.0000102     0.0000000
 l=   3
     0.0000000     0.0000000     0.0000000     0.0000000     0.0000000     0.0000000     0.0000000
     0.0000000     0.0000000     0.0000000     0.0000000     0.0000000     0.0000000     0.0000000
     0.0000000     0.0000000     0.0000000     0.0000000     0.0000000     0.0000000     0.0000000
     0.0000000     0.0000000     0.0000000     0.0000000     0.0000000     0.0000000     0.0000000
     0.0000000     0.0000000     0.0000000     0.0000000     0.0000000     0.0000000     0.0000000
     0.0000000     0.0000000     0.0000000     0.0000000     0.0000000     0.0000000     0.0000000
     0.0000000     0.0000000     0.0000000     0.0000000     0.0000000     0.0000000     0.0000000

 Ion:   18  E_soc:     -0.2837811
 l=   1
     0.0000000    -0.0472298    -0.0472605
    -0.0472298     0.0000000    -0.0472212
    -0.0472605    -0.0472212     0.0000000
 l=   2
     0.0000000    -0.0000142     0.0000000    -0.0000093    -0.0000518
    -0.0000142     0.0000000    -0.0000400    -0.0000110    -0.0000127
     0.0000000    -0.0000400     0.0000000    -0.0000299     0.0000000
    -0.0000093    -0.0000110    -0.0000299     0.0000000    -0.0000102
    -0.0000518    -0.0000127     0.0000000    -0.0000102     0.0000000
 l=   3
     0.0000000     0.0000000     0.0000000     0.0000000     0.0000000     0.0000000     0.0000000
     0.0000000     0.0000000     0.0000000     0.0000000     0.0000000     0.0000000     0.0000000
     0.0000000     0.0000000     0.0000000     0.0000000     0.0000000     0.0000000     0.0000000
     0.0000000     0.0000000     0.0000000     0.0000000     0.0000000     0.0000000     0.0000000
     0.0000000     0.0000000     0.0000000     0.0000000     0.0000000     0.0000000     0.0000000
     0.0000000     0.0000000     0.0000000     0.0000000     0.0000000     0.0000000     0.0000000
     0.0000000     0.0000000     0.0000000     0.0000000     0.0000000     0.0000000     0.0000000

 Ion:   19  E_soc:     -0.2837811
 l=   1
     0.0000000    -0.0472298    -0.0472605
    -0.0472298     0.0000000    -0.0472213
    -0.0472605    -0.0472213     0.0000000
 l=   2
     0.0000000    -0.0000142     0.0000000    -0.0000093    -0.0000518
    -0.0000142     0.0000000    -0.0000400    -0.0000110    -0.0000127
     0.0000000    -0.0000400     0.0000000    -0.0000299     0.0000000
    -0.0000093    -0.0000110    -0.0000299     0.0000000    -0.0000102
    -0.0000518    -0.0000127     0.0000000    -0.0000102     0.0000000
 l=   3
     0.0000000     0.0000000     0.0000000     0.0000000     0.0000000     0.0000000     0.0000000
     0.0000000     0.0000000     0.0000000     0.0000000     0.0000000     0.0000000     0.0000000
     0.0000000     0.0000000     0.0000000     0.0000000     0.0000000     0.0000000     0.0000000
     0.0000000     0.0000000     0.0000000     0.0000000     0.0000000     0.0000000     0.0000000
     0.0000000     0.0000000     0.0000000     0.0000000     0.0000000     0.0000000     0.0000000
     0.0000000     0.0000000     0.0000000     0.0000000     0.0000000     0.0000000     0.0000000
     0.0000000     0.0000000     0.0000000     0.0000000     0.0000000     0.0000000     0.0000000

 Ion:   20  E_soc:     -0.2837811
 l=   1
     0.0000000    -0.0472298    -0.0472605
    -0.0472298     0.0000000    -0.0472213
    -0.0472605    -0.0472213     0.0000000
 l=   2
     0.0000000    -0.0000142     0.0000000    -0.0000093    -0.0000518
    -0.0000142     0.0000000    -0.0000400    -0.0000110    -0.0000127
     0.0000000    -0.0000400     0.0000000    -0.0000299     0.0000000
    -0.0000093    -0.0000110    -0.0000299     0.0000000    -0.0000102
    -0.0000518    -0.0000127     0.0000000    -0.0000102     0.0000000
 l=   3
     0.0000000     0.0000000     0.0000000     0.0000000     0.0000000     0.0000000     0.0000000
     0.0000000     0.0000000     0.0000000     0.0000000     0.0000000     0.0000000     0.0000000
     0.0000000     0.0000000     0.0000000     0.0000000     0.0000000     0.0000000     0.0000000
     0.0000000     0.0000000     0.0000000     0.0000000     0.0000000     0.0000000     0.0000000
     0.0000000     0.0000000     0.0000000     0.0000000     0.0000000     0.0000000     0.0000000
     0.0000000     0.0000000     0.0000000     0.0000000     0.0000000     0.0000000     0.0000000
     0.0000000     0.0000000     0.0000000     0.0000000     0.0000000     0.0000000     0.0000000
 


 total charge     
 
# of ion       s       p       d       tot
------------------------------------------
    1        1.506   2.799   0.007   4.312
    2        1.506   2.799   0.007   4.312
    3        1.506   2.799   0.007   4.312
    4        1.506   2.799   0.007   4.312
    5        1.506   2.799   0.007   4.312
    6        1.506   2.799   0.007   4.312
    7        1.506   2.799   0.007   4.312
    8        1.506   2.799   0.007   4.312
    9        1.506   2.799   0.007   4.312
   10        1.506   2.799   0.007   4.312
   11        1.506   2.799   0.007   4.312
   12        1.506   2.799   0.007   4.312
   13        1.483   0.508   9.839  11.830
   14        1.483   0.508   9.839  11.830
   15        1.483   0.508   9.839  11.830
   16        1.483   0.508   9.839  11.830
   17        1.842   4.705   0.024   6.571
   18        1.842   4.705   0.024   6.571
   19        1.842   4.705   0.024   6.571
   20        1.842   4.705   0.024   6.571
--------------------------------------------------
tot         31.369  54.447  39.533 125.348
 


 magnetization (x)
 
# of ion       s       p       d       tot
------------------------------------------
    1        0.000  -0.000  -0.000  -0.000
    2       -0.000   0.000   0.000   0.000
    3       -0.000   0.000  -0.000   0.000
    4        0.000  -0.000   0.000  -0.000
    5       -0.000  -0.000  -0.000  -0.000
    6        0.000   0.000   0.000   0.000
    7       -0.000   0.000   0.000   0.000
    8        0.000  -0.000  -0.000  -0.000
    9       -0.000   0.000   0.000   0.000
   10        0.000  -0.000  -0.000  -0.000
   11        0.000  -0.000  -0.000  -0.000
   12       -0.000   0.000   0.000   0.000
   13        0.000   0.000   0.000   0.000
   14        0.000  -0.000   0.000   0.000
   15        0.000   0.000   0.000   0.000
   16        0.000  -0.000   0.000   0.000
   17       -0.000  -0.000  -0.000  -0.000
   18        0.000   0.000   0.000   0.000
   19        0.000   0.000   0.000   0.000
   20       -0.000  -0.000  -0.000  -0.000
--------------------------------------------------
tot         -0.000   0.000   0.000  -0.000
 


 magnetization (y)
 
# of ion       s       p       d       tot
------------------------------------------
    1        0.000   0.000   0.000   0.000
    2       -0.000  -0.000  -0.000  -0.000
    3        0.000   0.000  -0.000   0.000
    4       -0.000  -0.000   0.000  -0.000
    5        0.000   0.000   0.000   0.000
    6       -0.000  -0.000  -0.000  -0.000
    7        0.000  -0.000  -0.000  -0.000
    8       -0.000   0.000   0.000   0.000
    9        0.000   0.000   0.000   0.000
   10       -0.000  -0.000  -0.000  -0.000
   11        0.000   0.000   0.000   0.000
   12       -0.000  -0.000  -0.000  -0.000
   13        0.000  -0.000   0.000   0.000
   14        0.000   0.000   0.000   0.000
   15        0.000  -0.000   0.000   0.000
   16        0.000  -0.000   0.000   0.000
   17        0.000   0.000   0.000   0.000
   18       -0.000  -0.000  -0.000  -0.000
   19        0.000   0.000   0.000   0.000
   20       -0.000  -0.000  -0.000  -0.000
--------------------------------------------------
tot         -0.000   0.000   0.000  -0.000
 


 magnetization (z)
 
# of ion       s       p       d       tot
------------------------------------------
    1       -0.000   0.000   0.000   0.000
    2        0.000  -0.000  -0.000  -0.000
    3        0.000   0.000   0.000   0.000
    4       -0.000  -0.000  -0.000  -0.000
    5        0.000  -0.000  -0.000  -0.000
    6       -0.000   0.000   0.000   0.000
    7       -0.000  -0.000  -0.000  -0.000
    8        0.000   0.000   0.000   0.000
    9        0.000   0.000  -0.000   0.000
   10       -0.000  -0.000   0.000  -0.000
   11        0.000  -0.000  -0.000  -0.000
   12       -0.000   0.000   0.000   0.000
   13        0.000  -0.000   0.000   0.000
   14        0.000   0.000   0.000   0.000
   15        0.000  -0.000   0.000   0.000
   16        0.000  -0.000   0.000   0.000
   17        0.000   0.000   0.000   0.000
   18       -0.000  -0.000  -0.000  -0.000
   19        0.000  -0.000  -0.000  -0.000
   20       -0.000   0.000   0.000   0.000
--------------------------------------------------
tot         -0.000  -0.000   0.000  -0.000
 

 total amount of memory used by VASP MPI-rank0   886043. kBytes
=======================================================================

   base      :      30000. kBytes
   nonlr-proj:       5300. kBytes
   fftplans  :       9123. kBytes
   grid      :      27525. kBytes
   one-center:       1244. kBytes
   wavefun   :     812851. kBytes
 
  
  
 General timing and accounting informations for this job:
 ========================================================
  
                  Total CPU time used (sec):     3877.494
                            User time (sec):     3475.016
                          System time (sec):      402.478
                         Elapsed time (sec):     3898.663
  
                   Maximum memory used (kb):     1343700.
                   Average memory used (kb):           0.
  
                          Minor page faults:     18537418
                          Major page faults:          370
                 Voluntary context switches:         9279
