 vasp.5.4.4.18Apr17-6-g9f103f2a35 (build Jun 20 2018 15:01:45) complex          
  
 executed on             LinuxIFC date 2019.11.03  22:39:20
 running on   48 total cores
 distrk:  each k-point on   48 cores,    1 groups
 distr:  one band on NCORES_PER_BAND=   2 cores,   24 groups


--------------------------------------------------------------------------------------------------------


 INCAR:
 POTCAR:    PAW_PBE I 08Apr2002                   
 POTCAR:    PAW_PBE Pb_d 06Sep2000                
 POTCAR:    PAW_PBE Cs_sv 08Apr2002               

 ----------------------------------------------------------------------------- 
|                                                                             |
|           W    W    AA    RRRRR   N    N  II  N    N   GGGG   !!!           |
|           W    W   A  A   R    R  NN   N  II  NN   N  G    G  !!!           |
|           W    W  A    A  R    R  N N  N  II  N N  N  G       !!!           |
|           W WW W  AAAAAA  RRRRR   N  N N  II  N  N N  G  GGG   !            |
|           WW  WW  A    A  R   R   N   NN  II  N   NN  G    G                |
|           W    W  A    A  R    R  N    N  II  N    N   GGGG   !!!           |
|                                                                             |
|      For optimal performance we recommend to set                            |
|        NCORE= 4 - approx SQRT( number of cores)                             |
|      NCORE specifies how many cores store one orbital (NPAR=cpu/NCORE).     |
|      This setting can  greatly improve the performance of VASP for DFT.     |
|      The default,   NCORE=1            might be grossly inefficient         |
|      on modern multi-core architectures or massively parallel machines.     |
|      Do your own testing !!!!                                               |
|      Unfortunately you need to use the default for GW and RPA calculations. |
|      (for HF NCORE is supported but not extensively tested yet)             |
|                                                                             |
 ----------------------------------------------------------------------------- 

 POTCAR:    PAW_PBE I 08Apr2002                   
   VRHFIN =I : s2p5                                                             
   LEXCH  = PE                                                                  
   EATOM  =   315.8678 eV,   23.2156 Ry                                         
                                                                                
   TITEL  = PAW_PBE I 08Apr2002                                                 
   LULTRA =        F    use ultrasoft PP ?                                      
   IUNSCR =        1    unscreen: 0-lin 1-nonlin 2-no                           
   RPACOR =    2.200    partial core radius                                     
   POMASS =  126.904; ZVAL   =    7.000    mass and valenz                      
   RCORE  =    2.300    outmost cutoff radius                                   
   RWIGS  =    2.810; RWIGS  =    1.487    wigner-seitz radius (au A)           
   ENMAX  =  175.647; ENMIN  =  131.735 eV                                      
   ICORE  =        3    local potential                                         
   LCOR   =        T    correct aug charges                                     
   LPAW   =        T    paw PP                                                  
   EAUG   =  370.139                                                            
   DEXC   =    0.000                                                            
   RMAX   =    2.359    core radius for proj-oper                               
   RAUG   =    1.300    factor for augmentation sphere                          
   RDEP   =    2.392    radius for radial grids                                 
   RDEPT  =    2.170    core radius for aug-charge                              
                                                                                
   Atomic configuration                                                         
   13 entries                                                                   
     n  l   j            E        occ.                                          
     1  0  0.50    -32976.3739   2.0000                                         
     2  0  0.50     -5094.5933   2.0000                                         
     2  1  1.50     -4572.0131   6.0000                                         
     3  0  0.50     -1028.2813   2.0000                                         
     3  1  1.50      -859.0250   6.0000                                         
     3  2  2.50      -605.7620  10.0000                                         
     4  0  0.50      -180.5540   2.0000                                         
     4  1  1.50      -127.5306   6.0000                                         
     4  2  2.50       -50.2720  10.0000                                         
     5  0  0.50       -17.4058   2.0000                                         
     5  1  0.50        -7.0851   5.0000                                         
     5  2  1.50        -7.0750   0.0000                                         
     4  3  2.50        -7.0750   0.0000                                         
   Description                                                                  
     l       E           TYP  RCUT    TYP  RCUT                                 
     0    -17.4058016     23  2.300                                             
     0    -18.7663842     23  2.300                                             
     1     -7.0850686     23  2.300                                             
     1     -4.2150896     23  2.300                                             
     2     -7.0750295     23  2.300                                             
     3     -1.3605826     23  2.300                                             
  local pseudopotential read in
  partial core-charges read in
  partial kinetic energy density read in
  atomic valenz-charges read in
  non local Contribution for L=           0  read in
    real space projection operators read in
  non local Contribution for L=           0  read in
    real space projection operators read in
  non local Contribution for L=           1  read in
    real space projection operators read in
  non local Contribution for L=           1  read in
    real space projection operators read in
  non local Contribution for L=           2  read in
    real space projection operators read in
    PAW grid and wavefunctions read in
 
   number of l-projection  operators is LMAX  =           5
   number of lm-projection operators is LMMAX =          13
 
 POTCAR:    PAW_PBE Pb_d 06Sep2000                
   VRHFIN =Pb:                                                                  
   LEXCH  = PE                                                                  
   EATOM  =  1661.6185 eV,  122.1255 Ry                                         
                                                                                
   TITEL  = PAW_PBE Pb_d 06Sep2000                                              
   LULTRA =        F    use ultrasoft PP ?                                      
   IUNSCR =        1    unscreen: 0-lin 1-nonlin 2-no                           
   RPACOR =    2.200    partial core radius                                     
   POMASS =  207.200; ZVAL   =   14.000    mass and valenz                      
   RCORE  =    2.500    outmost cutoff radius                                   
   RWIGS  =    3.260; RWIGS  =    1.725    wigner-seitz radius (au A)           
   ENMAX  =  237.835; ENMIN  =  178.376 eV                                      
   ICORE  =        3    local potential                                         
   LCOR   =        T    correct aug charges                                     
   LPAW   =        T    paw PP                                                  
   EAUG   =  391.914                                                            
   DEXC   =    0.000                                                            
   RMAX   =    2.565    core radius for proj-oper                               
   RAUG   =    1.300    factor for augmentation sphere                          
   RDEP   =    2.643    radius for radial grids                                 
   RDEPT  =    2.092    core radius for aug-charge                              
                                                                                
   Atomic configuration                                                         
   16 entries                                                                   
     n  l   j            E        occ.                                          
     1  0  0.50    -88091.8466   2.0000                                         
     2  0  0.50    -15753.4197   2.0000                                         
     2  1  1.50    -13508.1797   6.0000                                         
     3  0  0.50     -3781.7194   2.0000                                         
     3  1  1.50     -3138.2529   6.0000                                         
     3  2  2.50     -2483.2977  10.0000                                         
     4  0  0.50      -856.2895   2.0000                                         
     4  1  1.50      -645.4942   6.0000                                         
     4  2  2.50      -401.8768  10.0000                                         
     4  3  3.50      -132.9059  14.0000                                         
     5  0  0.50      -144.0950   2.0000                                         
     5  1  1.50       -85.7879   6.0000                                         
     5  2  2.50       -21.1769  10.0000                                         
     6  0  0.50       -12.0372   2.0000                                         
     6  1  1.50        -3.4971   2.0000                                         
     5  3  2.50        -2.7212   0.0000                                         
   Description                                                                  
     l       E           TYP  RCUT    TYP  RCUT                                 
     2    -21.1768523     23  2.500                                             
     2      1.3605826     23  2.500                                             
     0    -12.0371562     23  2.500                                             
     0     13.6058260     23  2.500                                             
     1     -3.4971339     23  2.500                                             
     1     13.6058260     23  2.500                                             
     3     -1.3605826      7  2.500                                             
  local pseudopotential read in
  partial core-charges read in
  partial kinetic energy density read in
  atomic valenz-charges read in
  non local Contribution for L=           2  read in
    real space projection operators read in
  non local Contribution for L=           2  read in
    real space projection operators read in
  non local Contribution for L=           0  read in
    real space projection operators read in
  non local Contribution for L=           0  read in
    real space projection operators read in
  non local Contribution for L=           1  read in
    real space projection operators read in
  non local Contribution for L=           1  read in
    real space projection operators read in
    PAW grid and wavefunctions read in
 
   number of l-projection  operators is LMAX  =           6
   number of lm-projection operators is LMMAX =          18
 
 POTCAR:    PAW_PBE Cs_sv 08Apr2002               
   VRHFIN =Cs: 5s5p6s                                                           
   LEXCH  = PE                                                                  
   EATOM  =   555.6835 eV,   40.8416 Ry                                         
                                                                                
   TITEL  = PAW_PBE Cs_sv 08Apr2002                                             
   LULTRA =        F    use ultrasoft PP ?                                      
   IUNSCR =        1    unscreen: 0-lin 1-nonlin 2-no                           
   RPACOR =    2.200    partial core radius                                     
   POMASS =  132.900; ZVAL   =    9.000    mass and valenz                      
   RCORE  =    2.500    outmost cutoff radius                                   
   RWIGS  =    2.500; RWIGS  =    1.323    wigner-seitz radius (au A)           
   ENMAX  =  220.318; ENMIN  =  165.238 eV                                      
   RCLOC  =    2.207    cutoff for local pot                                    
   LCOR   =        T    correct aug charges                                     
   LPAW   =        T    paw PP                                                  
   EAUG   =  407.933                                                            
   DEXC   =    0.000                                                            
   RMAX   =    2.554    core radius for proj-oper                               
   RAUG   =    1.300    factor for augmentation sphere                          
   RDEP   =    2.590    radius for radial grids                                 
   RDEPT  =    2.117    core radius for aug-charge                              
                                                                                
   Atomic configuration                                                         
   13 entries                                                                   
     n  l   j            E        occ.                                          
     1  0  0.50    -35790.1377   2.0000                                         
     2  0  0.50     -5613.6201   2.0000                                         
     2  1  1.50     -5035.0101   6.0000                                         
     3  0  0.50     -1167.0767   2.0000                                         
     3  1  1.50      -980.9754   6.0000                                         
     3  2  2.50      -708.0703  10.0000                                         
     4  0  0.50      -220.2386   2.0000                                         
     4  1  1.50      -160.7596   6.0000                                         
     4  2  2.50       -74.2354  10.0000                                         
     5  0  0.50       -26.7287   2.0000                                         
     6  0  0.50        -2.0862   1.0000                                         
     5  1  1.50       -13.5159   6.0000                                         
     5  2  2.50        -0.4136   0.0000                                         
   Description                                                                  
     l       E           TYP  RCUT    TYP  RCUT                                 
     0    -26.7287425     23  1.900                                             
     0     -2.0862306     23  1.900                                             
     1    -13.5158719     23  2.500                                             
     1     -2.7211652     23  2.500                                             
     2     -0.4136171     23  2.500                                             
  local pseudopotential read in
  partial core-charges read in
  partial kinetic energy density read in
  atomic valenz-charges read in
  non local Contribution for L=           0  read in
    real space projection operators read in
  non local Contribution for L=           0  read in
    real space projection operators read in
  non local Contribution for L=           1  read in
    real space projection operators read in
  non local Contribution for L=           1  read in
    real space projection operators read in
  non local Contribution for L=           2  read in
    real space projection operators read in
    PAW grid and wavefunctions read in
 
   number of l-projection  operators is LMAX  =           5
   number of lm-projection operators is LMMAX =          13
 

 ----------------------------------------------------------------------------- 
|                                                                             |
|  ADVICE TO THIS USER RUNNING 'VASP/VAMP'   (HEAR YOUR MASTER'S VOICE ...):  |
|                                                                             |
|      You have a (more or less) 'large supercell' and for larger cells       |
|      it might be more efficient to use real space projection opertators     |
|      So try LREAL= Auto  in the INCAR   file.                               |
|      Mind:          For very  accurate calculation you might also keep the  |
|      reciprocal projection scheme          (i.e. LREAL=.FALSE.)             |
|                                                                             |
 ----------------------------------------------------------------------------- 

  PAW_PBE I 08Apr2002                   :
 energy of atom  1       EATOM= -315.8678
 kinetic energy error for atom=    0.0009 (will be added to EATOM!!)
  PAW_PBE Pb_d 06Sep2000                :
 energy of atom  2       EATOM=-1661.6185
 kinetic energy error for atom=    0.0037 (will be added to EATOM!!)
  PAW_PBE Cs_sv 08Apr2002               :
 energy of atom  3       EATOM= -555.6835
 kinetic energy error for atom=    0.0016 (will be added to EATOM!!)
 
 
 POSCAR: CsPbI3_325K                             
  positions in direct lattice
  velocities in cartesian coordinates
 exchange correlation table for  LEXCH =        8
   RHO(1)=    0.500       N(1)  =     2000
   RHO(2)=  100.500       N(2)  =     4000
 


--------------------------------------------------------------------------------------------------------


 ion  position               nearest neighbor table
   1  0.192  0.306  0.540-  14 3.21  13 3.21
   2  0.808  0.694  0.460-  14 3.21  13 3.21
   3  0.692  0.194  0.460-  13 3.21  14 3.21
   4  0.308  0.806  0.540-  13 3.21  14 3.21
   5  0.808  0.694  0.040-  16 3.21  15 3.21
   6  0.192  0.306  0.960-  16 3.21  15 3.21
   7  0.308  0.806  0.960-  15 3.21  16 3.21
   8  0.692  0.194  0.040-  15 3.21  16 3.21
   9  0.918  0.000  0.750-  15 3.21  13 3.21
  10  0.082  1.000  0.250-  13 3.21  15 3.21
  11  0.418  0.500  0.250-  14 3.21  16 3.21
  12  0.582  0.500  0.750-  16 3.21  14 3.21
  13  0.000  0.000  0.500-   3 3.21   4 3.21  10 3.21   9 3.21   1 3.21   2 3.21
  14  0.500  0.500  0.500-   2 3.21   1 3.21  11 3.21  12 3.21   3 3.21   4 3.21
  15  0.000  0.000  0.000-   8 3.21   7 3.21   9 3.21  10 3.21   6 3.21   5 3.21
  16  0.500  0.500  0.000-   5 3.21   6 3.21  12 3.21  11 3.21   8 3.21   7 3.21
  17  0.978  0.424  0.250-
  18  0.022  0.576  0.750-
  19  0.478  0.076  0.750-
  20  0.522  0.924  0.250-
 
  LATTYP: Found a simple orthorhombic cell.
 ALAT       =     8.6751003265
 B/A-ratio  =     1.0171640703
 C/A-ratio  =     1.4438795264
  
  Lattice vectors:
  
 A1 = (   8.6751003265,   0.0000000000,   0.0000000000)
 A2 = (   0.0000000000,   8.8240003586,   0.0000000000)
 A3 = (   0.0000000000,   0.0000000000,  12.5257997513)


Analysis of symmetry for initial positions (statically):
=====================================================================
 Subroutine PRICEL returns:
 Original cell was already a primitive cell.
 

 Routine SETGRP: Setting up the symmetry group for a 
 simple orthorhombic supercell.


 Subroutine GETGRP returns: Found  8 space group operations
 (whereof  2 operations were pure point group operations)
 out of a pool of  8 trial point group operations.


The static configuration has the point symmetry S_2 .
 The point group associated with its full space group is D_2h.


Analysis of symmetry for dynamics (positions and initial velocities):
=====================================================================
 Subroutine PRICEL returns:
 Original cell was already a primitive cell.
 

 Routine SETGRP: Setting up the symmetry group for a 
 simple orthorhombic supercell.


 Subroutine GETGRP returns: Found  8 space group operations
 (whereof  2 operations were pure point group operations)
 out of a pool of  8 trial point group operations.


The dynamic configuration has the point symmetry S_2 .
 The point group associated with its full space group is D_2h.


 Subroutine INISYM returns: Found  8 space group operations
 (whereof  2 operations are pure point group operations),
 and found     1 'primitive' translations

 
 
 KPOINTS: K-Path Generated by VASPKIT.            
  interpolating k-points between supplied coordinates
  k-points in reciprocal lattice
Space group operators:
 irot       det(A)        alpha          n_x          n_y          n_z        tau_x        tau_y        tau_z
    1     1.000000     0.000000     1.000000     0.000000     0.000000     0.000000     0.000000     0.000000
    2    -1.000000     0.000000     1.000000     0.000000     0.000000     0.000000     0.000000     0.000000
    3     1.000000   180.000000     0.000000     0.000000     1.000000     0.000000     0.000000     0.500000
    4    -1.000000   180.000000     0.000000     0.000000     1.000000     0.000000     0.000000     0.500000
    5     1.000000   180.000000     0.000000     1.000000     0.000000     0.500000     0.500000     0.500000
    6    -1.000000   180.000000     0.000000     1.000000     0.000000     0.500000     0.500000     0.500000
    7     1.000000   179.999999     1.000000     0.000000     0.000000     0.500000     0.500000     0.000000
    8    -1.000000   179.999999     1.000000     0.000000     0.000000     0.500000     0.500000     0.000000


--------------------------------------------------------------------------------------------------------




 Dimension of arrays:
   k-points           NKPTS =    240   k-points in BZ     NKDIM =    240   number of bands    NBANDS=    120
   number of dos      NEDOS =   2000   number of ions     NIONS =     20
   non local maximal  LDIM  =      6   non local SUM 2l+1 LMDIM =     18
   total plane-waves  NPLWV = 470400
   max r-space proj   IRMAX =      1   max aug-charges    IRDMAX=  28575
   dimension x,y,z NGX =    70 NGY =   70 NGZ =   96
   dimension x,y,z NGXF=   140 NGYF=  140 NGZF=  192
   support grid    NGXF=   140 NGYF=  140 NGZF=  192
   ions per type =              12   4   4
   NGX,Y,Z   is equivalent  to a cutoff of  13.41, 13.19, 12.74 a.u.
   NGXF,Y,Z  is equivalent  to a cutoff of  26.83, 26.38, 25.48 a.u.

 SYSTEM =  diamond                                 
 POSCAR =  CsPbI3_325K                             

 Startparameter for this run:
   NWRITE =      2    write-flag & timer
   PREC   = accura    normal or accurate (medium, high low for compatibility)
   ISTART =      0    job   : 0-new  1-cont  2-samecut
   ICHARG =     11    charge: 1-file 2-atom 10-const
   ISPIN  =      1    spin polarized calculation?
   LNONCOLLINEAR =      F non collinear calculations
   LSORBIT =      F    spin-orbit coupling
   INIWAV =      1    electr: 0-lowe 1-rand  2-diag
   LASPH  =      F    aspherical Exc in radial PAW
   METAGGA=      F    non-selfconsistent MetaGGA calc.

 Electronic Relaxation 1
   ENCUT  =  520.0 eV  38.22 Ry    6.18 a.u.  16.13 16.41 23.29*2*pi/ulx,y,z
   ENINI  =  520.0     initial cutoff
   ENAUG  =  407.9 eV  augmentation charge cutoff
   NELM   =     60;   NELMIN=  2; NELMDL=  0     # of ELM steps 
   EDIFF  = 0.1E-05   stopping-criterion for ELM
   LREAL  =      F    real-space projection
   NLSPLINE    = F    spline interpolate recip. space projectors
   LCOMPAT=      F    compatible to vasp.4.4
   GGA_COMPAT  = T    GGA compatible to vasp.4.4-vasp.4.6
   LMAXPAW     = -100 max onsite density
   LMAXMIX     =    2 max onsite mixed and CHGCAR
   VOSKOWN=      0    Vosko Wilk Nusair interpolation
   ROPT   =    0.00000   0.00000   0.00000
 Ionic relaxation
   EDIFFG = 0.1E-04   stopping-criterion for IOM
   NSW    =      0    number of steps for IOM
   NBLOCK =      1;   KBLOCK =      1    inner block; outer block 
   IBRION =     -1    ionic relax: 0-MD 1-quasi-New 2-CG
   NFREE  =      1    steps in history (QN), initial steepest desc. (CG)
   ISIF   =      2    stress and relaxation
   IWAVPR =     10    prediction:  0-non 1-charg 2-wave 3-comb
   ISYM   =      2    0-nonsym 1-usesym 2-fastsym
   LCORR  =      T    Harris-Foulkes like correction to forces

   POTIM  = 0.1000    time-step for ionic-motion
   TEIN   =    0.0    initial temperature
   TEBEG  =    0.0;   TEEND  =   0.0 temperature during run
   SMASS  =  -3.00    Nose mass-parameter (am)
   estimated Nose-frequenzy (Omega)   =  0.10E-29 period in steps =****** mass=  -0.172E-26a.u.
   SCALEE = 1.0000    scale energy and forces
   NPACO  =    256;   APACO  = 16.0  distance and # of slots for P.C.
   PSTRESS=    0.0 pullay stress

  Mass of Ions in am
   POMASS = 126.90207.20132.90
  Ionic Valenz
   ZVAL   =   7.00 14.00  9.00
  Atomic Wigner-Seitz radii
   RWIGS  =  -1.00 -1.00 -1.00
  virtual crystal weights 
   VCA    =   1.00  1.00  1.00
   NELECT =     176.0000    total number of electrons
   NUPDOWN=      -1.0000    fix difference up-down

 DOS related values:
   EMIN   =  10.00;   EMAX   =-10.00  energy-range for DOS
   EFERMI =   0.00
   ISMEAR =     1;   SIGMA  =   0.20  broadening in eV -4-tet -1-fermi 0-gaus

 Electronic relaxation 2 (details)
   IALGO  =     38    algorithm
   LDIAG  =      T    sub-space diagonalisation (order eigenvalues)
   LSUBROT=      F    optimize rotation matrix (better conditioning)
   TURBO    =      0    0=normal 1=particle mesh
   IRESTART =      0    0=no restart 2=restart with 2 vectors
   NREBOOT  =      0    no. of reboots
   NMIN     =      0    reboot dimension
   EREF     =   0.00    reference energy to select bands
   IMIX   =      4    mixing-type and parameters
     AMIX     =   0.40;   BMIX     =  1.00
     AMIX_MAG =   1.60;   BMIX_MAG =  1.00
     AMIN     =   0.10
     WC   =   100.;   INIMIX=   1;  MIXPRE=   1;  MAXMIX= -45

 Intra band minimization:
   WEIMIN = 0.0000     energy-eigenvalue tresh-hold
   EBREAK =  0.21E-08  absolut break condition
   DEPER  =   0.30     relativ break condition  

   TIME   =   0.40     timestep for ELM

  volume/ion in A,a.u.               =      47.94       323.53
  Fermi-wavevector in a.u.,A,eV,Ry     =   0.930388  1.758178 11.777489  0.865621
  Thomas-Fermi vector in A             =   2.056771
 
 Write flags
   LWAVE        =      T    write WAVECAR
   LDOWNSAMPLE  =      F    k-point downsampling of WAVECAR
   LCHARG       =      T    write CHGCAR
   LVTOT        =      F    write LOCPOT, total local potential
   LVHAR        =      F    write LOCPOT, Hartree potential only
   LELF         =      F    write electronic localiz. function (ELF)
   LORBIT       =     10    0 simple, 1 ext, 2 COOP (PROOUT), +10 PAW based schemes


 Dipole corrections
   LMONO  =      F    monopole corrections only (constant potential shift)
   LDIPOL =      F    correct potential (dipole corrections)
   IDIPOL =      0    1-x, 2-y, 3-z, 4-all directions 
   EPSILON=  1.0000000 bulk dielectric constant

 Exchange correlation treatment:
   GGA     =    --    GGA type
   LEXCH   =     8    internal setting for exchange type
   VOSKOWN=      0    Vosko Wilk Nusair interpolation
   LHFCALC =     F    Hartree Fock is set to
   LHFONE  =     F    Hartree Fock one center treatment
   AEXX    =    0.0000 exact exchange contribution

 Linear response parameters
   LEPSILON=     F    determine dielectric tensor
   LRPA    =     F    only Hartree local field effects (RPA)
   LNABLA  =     F    use nabla operator in PAW spheres
   LVEL    =     F    velocity operator in full k-point grid
   LINTERFAST=   F  fast interpolation
   KINTER  =     0    interpolate to denser k-point grid
   CSHIFT  =0.1000    complex shift for real part using Kramers Kronig
   OMEGAMAX=  -1.0    maximum frequency
   DEG_THRESHOLD= 0.2000000E-02 threshold for treating states as degnerate
   RTIME   =   -0.100 relaxation time in fs
  (WPLASMAI=    0.000 imaginary part of plasma frequency in eV, 0.658/RTIME)
   DFIELD  = 0.0000000 0.0000000 0.0000000 field for delta impulse in time
 
 Orbital magnetization related:
   ORBITALMAG=     F  switch on orbital magnetization
   LCHIMAG   =     F  perturbation theory with respect to B field
   DQ        =  0.001000  dq finite difference perturbation B field
   LLRAUG    =     F  two centre corrections for induced B field



--------------------------------------------------------------------------------------------------------


 Static calculation
 charge density and potential remain constant during run
 non-spin polarized calculation
 Variant of blocked Davidson
 Davidson routine will perform the subspace rotation
 perform sub-space diagonalisation
    after iterative eigenvector-optimisation
 no mixing
 using additional bands           32
 reciprocal scheme for non local part
 use partial core corrections
 calculate Harris-corrections to forces 
   (improved forces if not selfconsistent)
 use gradient corrections 
 WARNING: stress and forces are not correct
  (second derivative of E(xc) not defined)
 use of overlap-Matrix (Vanderbilt PP)
 Methfessel and Paxton  Order N= 1 SIGMA  =   0.20


--------------------------------------------------------------------------------------------------------


  energy-cutoff  :      520.00
  volume of cell :      958.84
      direct lattice vectors                 reciprocal lattice vectors
     8.675100327  0.000000000  0.000000000     0.115272442  0.000000000  0.000000000
     0.000000000  8.824000359  0.000000000     0.000000000  0.113327285  0.000000000
     0.000000000  0.000000000 12.525799751     0.000000000  0.000000000  0.079835222

  length of vectors
     8.675100327  8.824000359 12.525799751     0.115272442  0.113327285  0.079835222


 
 k-points in units of 2pi/SCALE and weight: K-Path Generated by VASPKIT.            
   0.00000000  0.00000000  0.00000000       0.004
   0.00303349  0.00000000  0.00000000       0.004
   0.00606697  0.00000000  0.00000000       0.004
   0.00910046  0.00000000  0.00000000       0.004
   0.01213394  0.00000000  0.00000000       0.004
   0.01516743  0.00000000  0.00000000       0.004
   0.01820091  0.00000000  0.00000000       0.004
   0.02123440  0.00000000  0.00000000       0.004
   0.02426788  0.00000000  0.00000000       0.004
   0.02730137  0.00000000  0.00000000       0.004
   0.03033485  0.00000000  0.00000000       0.004
   0.03336834  0.00000000  0.00000000       0.004
   0.03640182  0.00000000  0.00000000       0.004
   0.03943531  0.00000000  0.00000000       0.004
   0.04246879  0.00000000  0.00000000       0.004
   0.04550228  0.00000000  0.00000000       0.004
   0.04853577  0.00000000  0.00000000       0.004
   0.05156925  0.00000000  0.00000000       0.004
   0.05460274  0.00000000  0.00000000       0.004
   0.05763622  0.00000000  0.00000000       0.004
   0.05763622  0.00000000  0.00000000       0.004
   0.05763622  0.00298230  0.00000000       0.004
   0.05763622  0.00596459  0.00000000       0.004
   0.05763622  0.00894689  0.00000000       0.004
   0.05763622  0.01192919  0.00000000       0.004
   0.05763622  0.01491148  0.00000000       0.004
   0.05763622  0.01789378  0.00000000       0.004
   0.05763622  0.02087608  0.00000000       0.004
   0.05763622  0.02385838  0.00000000       0.004
   0.05763622  0.02684067  0.00000000       0.004
   0.05763622  0.02982297  0.00000000       0.004
   0.05763622  0.03280527  0.00000000       0.004
   0.05763622  0.03578756  0.00000000       0.004
   0.05763622  0.03876986  0.00000000       0.004
   0.05763622  0.04175216  0.00000000       0.004
   0.05763622  0.04473445  0.00000000       0.004
   0.05763622  0.04771675  0.00000000       0.004
   0.05763622  0.05069905  0.00000000       0.004
   0.05763622  0.05368135  0.00000000       0.004
   0.05763622  0.05666364  0.00000000       0.004
   0.05763622  0.05666364  0.00000000       0.004
   0.05460274  0.05666364  0.00000000       0.004
   0.05156925  0.05666364  0.00000000       0.004
   0.04853577  0.05666364  0.00000000       0.004
   0.04550228  0.05666364  0.00000000       0.004
   0.04246879  0.05666364  0.00000000       0.004
   0.03943531  0.05666364  0.00000000       0.004
   0.03640182  0.05666364  0.00000000       0.004
   0.03336834  0.05666364  0.00000000       0.004
   0.03033485  0.05666364  0.00000000       0.004
   0.02730137  0.05666364  0.00000000       0.004
   0.02426788  0.05666364  0.00000000       0.004
   0.02123440  0.05666364  0.00000000       0.004
   0.01820091  0.05666364  0.00000000       0.004
   0.01516743  0.05666364  0.00000000       0.004
   0.01213394  0.05666364  0.00000000       0.004
   0.00910046  0.05666364  0.00000000       0.004
   0.00606697  0.05666364  0.00000000       0.004
   0.00303349  0.05666364  0.00000000       0.004
   0.00000000  0.05666364  0.00000000       0.004
   0.00000000  0.05666364  0.00000000       0.004
   0.00000000  0.05368135  0.00000000       0.004
   0.00000000  0.05069905  0.00000000       0.004
   0.00000000  0.04771675  0.00000000       0.004
   0.00000000  0.04473445  0.00000000       0.004
   0.00000000  0.04175216  0.00000000       0.004
   0.00000000  0.03876986  0.00000000       0.004
   0.00000000  0.03578756  0.00000000       0.004
   0.00000000  0.03280527  0.00000000       0.004
   0.00000000  0.02982297  0.00000000       0.004
   0.00000000  0.02684067  0.00000000       0.004
   0.00000000  0.02385838  0.00000000       0.004
   0.00000000  0.02087608  0.00000000       0.004
   0.00000000  0.01789378  0.00000000       0.004
   0.00000000  0.01491148  0.00000000       0.004
   0.00000000  0.01192919  0.00000000       0.004
   0.00000000  0.00894689  0.00000000       0.004
   0.00000000  0.00596459  0.00000000       0.004
   0.00000000  0.00298230  0.00000000       0.004
   0.00000000  0.00000000  0.00000000       0.004
   0.00000000  0.00000000  0.00000000       0.004
   0.00000000  0.00000000  0.00210093       0.004
   0.00000000  0.00000000  0.00420185       0.004
   0.00000000  0.00000000  0.00630278       0.004
   0.00000000  0.00000000  0.00840371       0.004
   0.00000000  0.00000000  0.01050463       0.004
   0.00000000  0.00000000  0.01260556       0.004
   0.00000000  0.00000000  0.01470649       0.004
   0.00000000  0.00000000  0.01680742       0.004
   0.00000000  0.00000000  0.01890834       0.004
   0.00000000  0.00000000  0.02100927       0.004
   0.00000000  0.00000000  0.02311020       0.004
   0.00000000  0.00000000  0.02521112       0.004
   0.00000000  0.00000000  0.02731205       0.004
   0.00000000  0.00000000  0.02941298       0.004
   0.00000000  0.00000000  0.03151390       0.004
   0.00000000  0.00000000  0.03361483       0.004
   0.00000000  0.00000000  0.03571576       0.004
   0.00000000  0.00000000  0.03781668       0.004
   0.00000000  0.00000000  0.03991761       0.004
   0.00000000  0.00000000  0.03991761       0.004
   0.00303349  0.00000000  0.03991761       0.004
   0.00606697  0.00000000  0.03991761       0.004
   0.00910046  0.00000000  0.03991761       0.004
   0.01213394  0.00000000  0.03991761       0.004
   0.01516743  0.00000000  0.03991761       0.004
   0.01820091  0.00000000  0.03991761       0.004
   0.02123440  0.00000000  0.03991761       0.004
   0.02426788  0.00000000  0.03991761       0.004
   0.02730137  0.00000000  0.03991761       0.004
   0.03033485  0.00000000  0.03991761       0.004
   0.03336834  0.00000000  0.03991761       0.004
   0.03640182  0.00000000  0.03991761       0.004
   0.03943531  0.00000000  0.03991761       0.004
   0.04246879  0.00000000  0.03991761       0.004
   0.04550228  0.00000000  0.03991761       0.004
   0.04853577  0.00000000  0.03991761       0.004
   0.05156925  0.00000000  0.03991761       0.004
   0.05460274  0.00000000  0.03991761       0.004
   0.05763622  0.00000000  0.03991761       0.004
   0.05763622  0.00000000  0.03991761       0.004
   0.05763622  0.00298230  0.03991761       0.004
   0.05763622  0.00596459  0.03991761       0.004
   0.05763622  0.00894689  0.03991761       0.004
   0.05763622  0.01192919  0.03991761       0.004
   0.05763622  0.01491148  0.03991761       0.004
   0.05763622  0.01789378  0.03991761       0.004
   0.05763622  0.02087608  0.03991761       0.004
   0.05763622  0.02385838  0.03991761       0.004
   0.05763622  0.02684067  0.03991761       0.004
   0.05763622  0.02982297  0.03991761       0.004
   0.05763622  0.03280527  0.03991761       0.004
   0.05763622  0.03578756  0.03991761       0.004
   0.05763622  0.03876986  0.03991761       0.004
   0.05763622  0.04175216  0.03991761       0.004
   0.05763622  0.04473445  0.03991761       0.004
   0.05763622  0.04771675  0.03991761       0.004
   0.05763622  0.05069905  0.03991761       0.004
   0.05763622  0.05368135  0.03991761       0.004
   0.05763622  0.05666364  0.03991761       0.004
   0.05763622  0.05666364  0.03991761       0.004
   0.05460274  0.05666364  0.03991761       0.004
   0.05156925  0.05666364  0.03991761       0.004
   0.04853577  0.05666364  0.03991761       0.004
   0.04550228  0.05666364  0.03991761       0.004
   0.04246879  0.05666364  0.03991761       0.004
   0.03943531  0.05666364  0.03991761       0.004
   0.03640182  0.05666364  0.03991761       0.004
   0.03336834  0.05666364  0.03991761       0.004
   0.03033485  0.05666364  0.03991761       0.004
   0.02730137  0.05666364  0.03991761       0.004
   0.02426788  0.05666364  0.03991761       0.004
   0.02123440  0.05666364  0.03991761       0.004
   0.01820091  0.05666364  0.03991761       0.004
   0.01516743  0.05666364  0.03991761       0.004
   0.01213394  0.05666364  0.03991761       0.004
   0.00910046  0.05666364  0.03991761       0.004
   0.00606697  0.05666364  0.03991761       0.004
   0.00303349  0.05666364  0.03991761       0.004
   0.00000000  0.05666364  0.03991761       0.004
   0.00000000  0.05666364  0.03991761       0.004
   0.00000000  0.05368135  0.03991761       0.004
   0.00000000  0.05069905  0.03991761       0.004
   0.00000000  0.04771675  0.03991761       0.004
   0.00000000  0.04473445  0.03991761       0.004
   0.00000000  0.04175216  0.03991761       0.004
   0.00000000  0.03876986  0.03991761       0.004
   0.00000000  0.03578756  0.03991761       0.004
   0.00000000  0.03280527  0.03991761       0.004
   0.00000000  0.02982297  0.03991761       0.004
   0.00000000  0.02684067  0.03991761       0.004
   0.00000000  0.02385838  0.03991761       0.004
   0.00000000  0.02087608  0.03991761       0.004
   0.00000000  0.01789378  0.03991761       0.004
   0.00000000  0.01491148  0.03991761       0.004
   0.00000000  0.01192919  0.03991761       0.004
   0.00000000  0.00894689  0.03991761       0.004
   0.00000000  0.00596459  0.03991761       0.004
   0.00000000  0.00298230  0.03991761       0.004
   0.00000000  0.00000000  0.03991761       0.004
   0.05763622  0.00000000  0.00000000       0.004
   0.05763622  0.00000000  0.00210093       0.004
   0.05763622  0.00000000  0.00420185       0.004
   0.05763622  0.00000000  0.00630278       0.004
   0.05763622  0.00000000  0.00840371       0.004
   0.05763622  0.00000000  0.01050463       0.004
   0.05763622  0.00000000  0.01260556       0.004
   0.05763622  0.00000000  0.01470649       0.004
   0.05763622  0.00000000  0.01680742       0.004
   0.05763622  0.00000000  0.01890834       0.004
   0.05763622  0.00000000  0.02100927       0.004
   0.05763622  0.00000000  0.02311020       0.004
   0.05763622  0.00000000  0.02521112       0.004
   0.05763622  0.00000000  0.02731205       0.004
   0.05763622  0.00000000  0.02941298       0.004
   0.05763622  0.00000000  0.03151390       0.004
   0.05763622  0.00000000  0.03361483       0.004
   0.05763622  0.00000000  0.03571576       0.004
   0.05763622  0.00000000  0.03781668       0.004
   0.05763622  0.00000000  0.03991761       0.004
   0.00000000  0.05666364  0.00000000       0.004
   0.00000000  0.05666364  0.00210093       0.004
   0.00000000  0.05666364  0.00420185       0.004
   0.00000000  0.05666364  0.00630278       0.004
   0.00000000  0.05666364  0.00840371       0.004
   0.00000000  0.05666364  0.01050463       0.004
   0.00000000  0.05666364  0.01260556       0.004
   0.00000000  0.05666364  0.01470649       0.004
   0.00000000  0.05666364  0.01680742       0.004
   0.00000000  0.05666364  0.01890834       0.004
   0.00000000  0.05666364  0.02100927       0.004
   0.00000000  0.05666364  0.02311020       0.004
   0.00000000  0.05666364  0.02521112       0.004
   0.00000000  0.05666364  0.02731205       0.004
   0.00000000  0.05666364  0.02941298       0.004
   0.00000000  0.05666364  0.03151390       0.004
   0.00000000  0.05666364  0.03361483       0.004
   0.00000000  0.05666364  0.03571576       0.004
   0.00000000  0.05666364  0.03781668       0.004
   0.00000000  0.05666364  0.03991761       0.004
   0.05763622  0.05666364  0.00000000       0.004
   0.05763622  0.05666364  0.00210093       0.004
   0.05763622  0.05666364  0.00420185       0.004
   0.05763622  0.05666364  0.00630278       0.004
   0.05763622  0.05666364  0.00840371       0.004
   0.05763622  0.05666364  0.01050463       0.004
   0.05763622  0.05666364  0.01260556       0.004
   0.05763622  0.05666364  0.01470649       0.004
   0.05763622  0.05666364  0.01680742       0.004
   0.05763622  0.05666364  0.01890834       0.004
   0.05763622  0.05666364  0.02100927       0.004
   0.05763622  0.05666364  0.02311020       0.004
   0.05763622  0.05666364  0.02521112       0.004
   0.05763622  0.05666364  0.02731205       0.004
   0.05763622  0.05666364  0.02941298       0.004
   0.05763622  0.05666364  0.03151390       0.004
   0.05763622  0.05666364  0.03361483       0.004
   0.05763622  0.05666364  0.03571576       0.004
   0.05763622  0.05666364  0.03781668       0.004
   0.05763622  0.05666364  0.03991761       0.004
 
 k-points in reciprocal lattice and weights: K-Path Generated by VASPKIT.            
   0.00000000  0.00000000  0.00000000       0.004
   0.02631579  0.00000000  0.00000000       0.004
   0.05263158  0.00000000  0.00000000       0.004
   0.07894737  0.00000000  0.00000000       0.004
   0.10526316  0.00000000  0.00000000       0.004
   0.13157895  0.00000000  0.00000000       0.004
   0.15789474  0.00000000  0.00000000       0.004
   0.18421053  0.00000000  0.00000000       0.004
   0.21052632  0.00000000  0.00000000       0.004
   0.23684211  0.00000000  0.00000000       0.004
   0.26315789  0.00000000  0.00000000       0.004
   0.28947368  0.00000000  0.00000000       0.004
   0.31578947  0.00000000  0.00000000       0.004
   0.34210526  0.00000000  0.00000000       0.004
   0.36842105  0.00000000  0.00000000       0.004
   0.39473684  0.00000000  0.00000000       0.004
   0.42105263  0.00000000  0.00000000       0.004
   0.44736842  0.00000000  0.00000000       0.004
   0.47368421  0.00000000  0.00000000       0.004
   0.50000000  0.00000000  0.00000000       0.004
   0.50000000  0.00000000  0.00000000       0.004
   0.50000000  0.02631579  0.00000000       0.004
   0.50000000  0.05263158  0.00000000       0.004
   0.50000000  0.07894737  0.00000000       0.004
   0.50000000  0.10526316  0.00000000       0.004
   0.50000000  0.13157895  0.00000000       0.004
   0.50000000  0.15789474  0.00000000       0.004
   0.50000000  0.18421053  0.00000000       0.004
   0.50000000  0.21052632  0.00000000       0.004
   0.50000000  0.23684211  0.00000000       0.004
   0.50000000  0.26315789  0.00000000       0.004
   0.50000000  0.28947368  0.00000000       0.004
   0.50000000  0.31578947  0.00000000       0.004
   0.50000000  0.34210526  0.00000000       0.004
   0.50000000  0.36842105  0.00000000       0.004
   0.50000000  0.39473684  0.00000000       0.004
   0.50000000  0.42105263  0.00000000       0.004
   0.50000000  0.44736842  0.00000000       0.004
   0.50000000  0.47368421  0.00000000       0.004
   0.50000000  0.50000000  0.00000000       0.004
   0.50000000  0.50000000  0.00000000       0.004
   0.47368421  0.50000000  0.00000000       0.004
   0.44736842  0.50000000  0.00000000       0.004
   0.42105263  0.50000000  0.00000000       0.004
   0.39473684  0.50000000  0.00000000       0.004
   0.36842105  0.50000000  0.00000000       0.004
   0.34210526  0.50000000  0.00000000       0.004
   0.31578947  0.50000000  0.00000000       0.004
   0.28947368  0.50000000  0.00000000       0.004
   0.26315789  0.50000000  0.00000000       0.004
   0.23684211  0.50000000  0.00000000       0.004
   0.21052632  0.50000000  0.00000000       0.004
   0.18421053  0.50000000  0.00000000       0.004
   0.15789474  0.50000000  0.00000000       0.004
   0.13157895  0.50000000  0.00000000       0.004
   0.10526316  0.50000000  0.00000000       0.004
   0.07894737  0.50000000  0.00000000       0.004
   0.05263158  0.50000000  0.00000000       0.004
   0.02631579  0.50000000  0.00000000       0.004
   0.00000000  0.50000000  0.00000000       0.004
   0.00000000  0.50000000  0.00000000       0.004
   0.00000000  0.47368421  0.00000000       0.004
   0.00000000  0.44736842  0.00000000       0.004
   0.00000000  0.42105263  0.00000000       0.004
   0.00000000  0.39473684  0.00000000       0.004
   0.00000000  0.36842105  0.00000000       0.004
   0.00000000  0.34210526  0.00000000       0.004
   0.00000000  0.31578947  0.00000000       0.004
   0.00000000  0.28947368  0.00000000       0.004
   0.00000000  0.26315789  0.00000000       0.004
   0.00000000  0.23684211  0.00000000       0.004
   0.00000000  0.21052632  0.00000000       0.004
   0.00000000  0.18421053  0.00000000       0.004
   0.00000000  0.15789474  0.00000000       0.004
   0.00000000  0.13157895  0.00000000       0.004
   0.00000000  0.10526316  0.00000000       0.004
   0.00000000  0.07894737  0.00000000       0.004
   0.00000000  0.05263158  0.00000000       0.004
   0.00000000  0.02631579  0.00000000       0.004
   0.00000000  0.00000000  0.00000000       0.004
   0.00000000  0.00000000  0.00000000       0.004
   0.00000000  0.00000000  0.02631579       0.004
   0.00000000  0.00000000  0.05263158       0.004
   0.00000000  0.00000000  0.07894737       0.004
   0.00000000  0.00000000  0.10526316       0.004
   0.00000000  0.00000000  0.13157895       0.004
   0.00000000  0.00000000  0.15789474       0.004
   0.00000000  0.00000000  0.18421053       0.004
   0.00000000  0.00000000  0.21052632       0.004
   0.00000000  0.00000000  0.23684211       0.004
   0.00000000  0.00000000  0.26315789       0.004
   0.00000000  0.00000000  0.28947368       0.004
   0.00000000  0.00000000  0.31578947       0.004
   0.00000000  0.00000000  0.34210526       0.004
   0.00000000  0.00000000  0.36842105       0.004
   0.00000000  0.00000000  0.39473684       0.004
   0.00000000  0.00000000  0.42105263       0.004
   0.00000000  0.00000000  0.44736842       0.004
   0.00000000  0.00000000  0.47368421       0.004
   0.00000000  0.00000000  0.50000000       0.004
   0.00000000  0.00000000  0.50000000       0.004
   0.02631579  0.00000000  0.50000000       0.004
   0.05263158  0.00000000  0.50000000       0.004
   0.07894737  0.00000000  0.50000000       0.004
   0.10526316  0.00000000  0.50000000       0.004
   0.13157895  0.00000000  0.50000000       0.004
   0.15789474  0.00000000  0.50000000       0.004
   0.18421053  0.00000000  0.50000000       0.004
   0.21052632  0.00000000  0.50000000       0.004
   0.23684211  0.00000000  0.50000000       0.004
   0.26315789  0.00000000  0.50000000       0.004
   0.28947368  0.00000000  0.50000000       0.004
   0.31578947  0.00000000  0.50000000       0.004
   0.34210526  0.00000000  0.50000000       0.004
   0.36842105  0.00000000  0.50000000       0.004
   0.39473684  0.00000000  0.50000000       0.004
   0.42105263  0.00000000  0.50000000       0.004
   0.44736842  0.00000000  0.50000000       0.004
   0.47368421  0.00000000  0.50000000       0.004
   0.50000000  0.00000000  0.50000000       0.004
   0.50000000  0.00000000  0.50000000       0.004
   0.50000000  0.02631579  0.50000000       0.004
   0.50000000  0.05263158  0.50000000       0.004
   0.50000000  0.07894737  0.50000000       0.004
   0.50000000  0.10526316  0.50000000       0.004
   0.50000000  0.13157895  0.50000000       0.004
   0.50000000  0.15789474  0.50000000       0.004
   0.50000000  0.18421053  0.50000000       0.004
   0.50000000  0.21052632  0.50000000       0.004
   0.50000000  0.23684211  0.50000000       0.004
   0.50000000  0.26315789  0.50000000       0.004
   0.50000000  0.28947368  0.50000000       0.004
   0.50000000  0.31578947  0.50000000       0.004
   0.50000000  0.34210526  0.50000000       0.004
   0.50000000  0.36842105  0.50000000       0.004
   0.50000000  0.39473684  0.50000000       0.004
   0.50000000  0.42105263  0.50000000       0.004
   0.50000000  0.44736842  0.50000000       0.004
   0.50000000  0.47368421  0.50000000       0.004
   0.50000000  0.50000000  0.50000000       0.004
   0.50000000  0.50000000  0.50000000       0.004
   0.47368421  0.50000000  0.50000000       0.004
   0.44736842  0.50000000  0.50000000       0.004
   0.42105263  0.50000000  0.50000000       0.004
   0.39473684  0.50000000  0.50000000       0.004
   0.36842105  0.50000000  0.50000000       0.004
   0.34210526  0.50000000  0.50000000       0.004
   0.31578947  0.50000000  0.50000000       0.004
   0.28947368  0.50000000  0.50000000       0.004
   0.26315789  0.50000000  0.50000000       0.004
   0.23684211  0.50000000  0.50000000       0.004
   0.21052632  0.50000000  0.50000000       0.004
   0.18421053  0.50000000  0.50000000       0.004
   0.15789474  0.50000000  0.50000000       0.004
   0.13157895  0.50000000  0.50000000       0.004
   0.10526316  0.50000000  0.50000000       0.004
   0.07894737  0.50000000  0.50000000       0.004
   0.05263158  0.50000000  0.50000000       0.004
   0.02631579  0.50000000  0.50000000       0.004
   0.00000000  0.50000000  0.50000000       0.004
   0.00000000  0.50000000  0.50000000       0.004
   0.00000000  0.47368421  0.50000000       0.004
   0.00000000  0.44736842  0.50000000       0.004
   0.00000000  0.42105263  0.50000000       0.004
   0.00000000  0.39473684  0.50000000       0.004
   0.00000000  0.36842105  0.50000000       0.004
   0.00000000  0.34210526  0.50000000       0.004
   0.00000000  0.31578947  0.50000000       0.004
   0.00000000  0.28947368  0.50000000       0.004
   0.00000000  0.26315789  0.50000000       0.004
   0.00000000  0.23684211  0.50000000       0.004
   0.00000000  0.21052632  0.50000000       0.004
   0.00000000  0.18421053  0.50000000       0.004
   0.00000000  0.15789474  0.50000000       0.004
   0.00000000  0.13157895  0.50000000       0.004
   0.00000000  0.10526316  0.50000000       0.004
   0.00000000  0.07894737  0.50000000       0.004
   0.00000000  0.05263158  0.50000000       0.004
   0.00000000  0.02631579  0.50000000       0.004
   0.00000000  0.00000000  0.50000000       0.004
   0.50000000  0.00000000  0.00000000       0.004
   0.50000000  0.00000000  0.02631579       0.004
   0.50000000  0.00000000  0.05263158       0.004
   0.50000000  0.00000000  0.07894737       0.004
   0.50000000  0.00000000  0.10526316       0.004
   0.50000000  0.00000000  0.13157895       0.004
   0.50000000  0.00000000  0.15789474       0.004
   0.50000000  0.00000000  0.18421053       0.004
   0.50000000  0.00000000  0.21052632       0.004
   0.50000000  0.00000000  0.23684211       0.004
   0.50000000  0.00000000  0.26315789       0.004
   0.50000000  0.00000000  0.28947368       0.004
   0.50000000  0.00000000  0.31578947       0.004
   0.50000000  0.00000000  0.34210526       0.004
   0.50000000  0.00000000  0.36842105       0.004
   0.50000000  0.00000000  0.39473684       0.004
   0.50000000  0.00000000  0.42105263       0.004
   0.50000000  0.00000000  0.44736842       0.004
   0.50000000  0.00000000  0.47368421       0.004
   0.50000000  0.00000000  0.50000000       0.004
   0.00000000  0.50000000  0.00000000       0.004
   0.00000000  0.50000000  0.02631579       0.004
   0.00000000  0.50000000  0.05263158       0.004
   0.00000000  0.50000000  0.07894737       0.004
   0.00000000  0.50000000  0.10526316       0.004
   0.00000000  0.50000000  0.13157895       0.004
   0.00000000  0.50000000  0.15789474       0.004
   0.00000000  0.50000000  0.18421053       0.004
   0.00000000  0.50000000  0.21052632       0.004
   0.00000000  0.50000000  0.23684211       0.004
   0.00000000  0.50000000  0.26315789       0.004
   0.00000000  0.50000000  0.28947368       0.004
   0.00000000  0.50000000  0.31578947       0.004
   0.00000000  0.50000000  0.34210526       0.004
   0.00000000  0.50000000  0.36842105       0.004
   0.00000000  0.50000000  0.39473684       0.004
   0.00000000  0.50000000  0.42105263       0.004
   0.00000000  0.50000000  0.44736842       0.004
   0.00000000  0.50000000  0.47368421       0.004
   0.00000000  0.50000000  0.50000000       0.004
   0.50000000  0.50000000  0.00000000       0.004
   0.50000000  0.50000000  0.02631579       0.004
   0.50000000  0.50000000  0.05263158       0.004
   0.50000000  0.50000000  0.07894737       0.004
   0.50000000  0.50000000  0.10526316       0.004
   0.50000000  0.50000000  0.13157895       0.004
   0.50000000  0.50000000  0.15789474       0.004
   0.50000000  0.50000000  0.18421053       0.004
   0.50000000  0.50000000  0.21052632       0.004
   0.50000000  0.50000000  0.23684211       0.004
   0.50000000  0.50000000  0.26315789       0.004
   0.50000000  0.50000000  0.28947368       0.004
   0.50000000  0.50000000  0.31578947       0.004
   0.50000000  0.50000000  0.34210526       0.004
   0.50000000  0.50000000  0.36842105       0.004
   0.50000000  0.50000000  0.39473684       0.004
   0.50000000  0.50000000  0.42105263       0.004
   0.50000000  0.50000000  0.44736842       0.004
   0.50000000  0.50000000  0.47368421       0.004
   0.50000000  0.50000000  0.50000000       0.004
 
 position of ions in fractional coordinates (direct lattice) 
   0.19227051  0.30587406  0.54028163
   0.80772943  0.69412589  0.45971837
   0.69227057  0.19412594  0.45971837
   0.30772949  0.80587411  0.54028163
   0.80772943  0.69412589  0.04028164
   0.19227051  0.30587406  0.95971837
   0.30772949  0.80587411  0.95971837
   0.69227057  0.19412594  0.04028164
   0.91757977  0.00007447  0.75000002
   0.08242017  0.99992553  0.25000000
   0.41757982  0.49992553  0.25000000
   0.58242018  0.50007447  0.75000002
   0.00000000  0.00000000  0.50000000
   0.50000000  0.50000000  0.50000000
   0.00000000  0.00000000  0.00000000
   0.50000000  0.50000000  0.00000000
   0.97805666  0.42438825  0.25000000
   0.02194334  0.57561175  0.75000002
   0.47805666  0.07561174  0.75000002
   0.52194334  0.92438825  0.25000000
 
 position of ions in cartesian coordinates  (Angst):
   1.66796599  2.69903280  6.76745953
   7.00713386  6.12496708  5.75834022
   6.00551663  1.71296738  5.75834022
   2.66958417  7.11103345  6.76745953
   7.00713386  6.12496708  0.50455974
   1.66796599  2.69903280 12.02124010
   2.66958417  7.11103345 12.02124010
   6.00551663  1.71296738  0.50455974
   7.96009654  0.00065714  9.39435005
   0.71500325  8.82334327  3.13144994
   3.62254686  4.41134304  3.13144994
   5.05255347  4.41265732  9.39435005
   0.00000000  0.00000000  6.26289988
   4.33755016  4.41200018  6.26289988
   0.00000000  0.00000000  0.00000000
   4.33755016  4.41200018  0.00000000
   8.48473964  3.74480210  3.13144994
   0.19036067  5.07919826  9.39435005
   4.14718948  0.66719802  9.39435005
   4.52791085  8.15680228  3.13144994
 


--------------------------------------------------------------------------------------------------------


 k-point  1 :   0.0000 0.0000 0.0000  plane waves:   25779
 k-point  2 :   0.0263 0.0000 0.0000  plane waves:   25799
 k-point  3 :   0.0526 0.0000 0.0000  plane waves:   25813
 k-point  4 :   0.0789 0.0000 0.0000  plane waves:   25831
 k-point  5 :   0.1053 0.0000 0.0000  plane waves:   25843
 k-point  6 :   0.1316 0.0000 0.0000  plane waves:   25854
 k-point  7 :   0.1579 0.0000 0.0000  plane waves:   25878
 k-point  8 :   0.1842 0.0000 0.0000  plane waves:   25890
 k-point  9 :   0.2105 0.0000 0.0000  plane waves:   25874
 k-point 10 :   0.2368 0.0000 0.0000  plane waves:   25860
 k-point 11 :   0.2632 0.0000 0.0000  plane waves:   25866
 k-point 12 :   0.2895 0.0000 0.0000  plane waves:   25870
 k-point 13 :   0.3158 0.0000 0.0000  plane waves:   25840
 k-point 14 :   0.3421 0.0000 0.0000  plane waves:   25812
 k-point 15 :   0.3684 0.0000 0.0000  plane waves:   25816
 k-point 16 :   0.3947 0.0000 0.0000  plane waves:   25848
 k-point 17 :   0.4211 0.0000 0.0000  plane waves:   25858
 k-point 18 :   0.4474 0.0000 0.0000  plane waves:   25878
 k-point 19 :   0.4737 0.0000 0.0000  plane waves:   25870
 k-point 20 :   0.5000 0.0000 0.0000  plane waves:   25880
 k-point 21 :   0.5000 0.0000 0.0000  plane waves:   25880
 k-point 22 :   0.5000 0.0263 0.0000  plane waves:   25858
 k-point 23 :   0.5000 0.0526 0.0000  plane waves:   25858
 k-point 24 :   0.5000 0.0789 0.0000  plane waves:   25860
 k-point 25 :   0.5000 0.1053 0.0000  plane waves:   25848
 k-point 26 :   0.5000 0.1316 0.0000  plane waves:   25852
 k-point 27 :   0.5000 0.1579 0.0000  plane waves:   25848
 k-point 28 :   0.5000 0.1842 0.0000  plane waves:   25848
 k-point 29 :   0.5000 0.2105 0.0000  plane waves:   25840
 k-point 30 :   0.5000 0.2368 0.0000  plane waves:   25840
 k-point 31 :   0.5000 0.2632 0.0000  plane waves:   25844
 k-point 32 :   0.5000 0.2895 0.0000  plane waves:   25824
 k-point 33 :   0.5000 0.3158 0.0000  plane waves:   25820
 k-point 34 :   0.5000 0.3421 0.0000  plane waves:   25814
 k-point 35 :   0.5000 0.3684 0.0000  plane waves:   25806
 k-point 36 :   0.5000 0.3947 0.0000  plane waves:   25800
 k-point 37 :   0.5000 0.4211 0.0000  plane waves:   25790
 k-point 38 :   0.5000 0.4474 0.0000  plane waves:   25780
 k-point 39 :   0.5000 0.4737 0.0000  plane waves:   25784
 k-point 40 :   0.5000 0.5000 0.0000  plane waves:   25796
 k-point 41 :   0.5000 0.5000 0.0000  plane waves:   25796
 k-point 42 :   0.4737 0.5000 0.0000  plane waves:   25780
 k-point 43 :   0.4474 0.5000 0.0000  plane waves:   25780
 k-point 44 :   0.4211 0.5000 0.0000  plane waves:   25772
 k-point 45 :   0.3947 0.5000 0.0000  plane waves:   25780
 k-point 46 :   0.3684 0.5000 0.0000  plane waves:   25790
 k-point 47 :   0.3421 0.5000 0.0000  plane waves:   25788
 k-point 48 :   0.3158 0.5000 0.0000  plane waves:   25784
 k-point 49 :   0.2895 0.5000 0.0000  plane waves:   25776
 k-point 50 :   0.2632 0.5000 0.0000  plane waves:   25738
 k-point 51 :   0.2368 0.5000 0.0000  plane waves:   25748
 k-point 52 :   0.2105 0.5000 0.0000  plane waves:   25768
 k-point 53 :   0.1842 0.5000 0.0000  plane waves:   25782
 k-point 54 :   0.1579 0.5000 0.0000  plane waves:   25792
 k-point 55 :   0.1316 0.5000 0.0000  plane waves:   25814
 k-point 56 :   0.1053 0.5000 0.0000  plane waves:   25808
 k-point 57 :   0.0789 0.5000 0.0000  plane waves:   25848
 k-point 58 :   0.0526 0.5000 0.0000  plane waves:   25840
 k-point 59 :   0.0263 0.5000 0.0000  plane waves:   25828
 k-point 60 :   0.0000 0.5000 0.0000  plane waves:   25816
 k-point 61 :   0.0000 0.5000 0.0000  plane waves:   25816
 k-point 62 :   0.0000 0.4737 0.0000  plane waves:   25822
 k-point 63 :   0.0000 0.4474 0.0000  plane waves:   25838
 k-point 64 :   0.0000 0.4211 0.0000  plane waves:   25822
 k-point 65 :   0.0000 0.3947 0.0000  plane waves:   25797
 k-point 66 :   0.0000 0.3684 0.0000  plane waves:   25807
 k-point 67 :   0.0000 0.3421 0.0000  plane waves:   25835
 k-point 68 :   0.0000 0.3158 0.0000  plane waves:   25835
 k-point 69 :   0.0000 0.2895 0.0000  plane waves:   25819
 k-point 70 :   0.0000 0.2632 0.0000  plane waves:   25829
 k-point 71 :   0.0000 0.2368 0.0000  plane waves:   25811
 k-point 72 :   0.0000 0.2105 0.0000  plane waves:   25809
 k-point 73 :   0.0000 0.1842 0.0000  plane waves:   25801
 k-point 74 :   0.0000 0.1579 0.0000  plane waves:   25809
 k-point 75 :   0.0000 0.1316 0.0000  plane waves:   25815
 k-point 76 :   0.0000 0.1053 0.0000  plane waves:   25811
 k-point 77 :   0.0000 0.0789 0.0000  plane waves:   25825
 k-point 78 :   0.0000 0.0526 0.0000  plane waves:   25811
 k-point 79 :   0.0000 0.0263 0.0000  plane waves:   25799
 k-point 80 :   0.0000 0.0000 0.0000  plane waves:   25779
 k-point 81 :   0.0000 0.0000 0.0000  plane waves:   25779
 k-point 82 :   0.0000 0.0000 0.0263  plane waves:   25801
 k-point 83 :   0.0000 0.0000 0.0526  plane waves:   25813
 k-point 84 :   0.0000 0.0000 0.0789  plane waves:   25795
 k-point 85 :   0.0000 0.0000 0.1053  plane waves:   25797
 k-point 86 :   0.0000 0.0000 0.1316  plane waves:   25793
 k-point 87 :   0.0000 0.0000 0.1579  plane waves:   25795
 k-point 88 :   0.0000 0.0000 0.1842  plane waves:   25809
 k-point 89 :   0.0000 0.0000 0.2105  plane waves:   25815
 k-point 90 :   0.0000 0.0000 0.2368  plane waves:   25819
 k-point 91 :   0.0000 0.0000 0.2632  plane waves:   25819
 k-point 92 :   0.0000 0.0000 0.2895  plane waves:   25811
 k-point 93 :   0.0000 0.0000 0.3158  plane waves:   25810
 k-point 94 :   0.0000 0.0000 0.3421  plane waves:   25804
 k-point 95 :   0.0000 0.0000 0.3684  plane waves:   25808
 k-point 96 :   0.0000 0.0000 0.3947  plane waves:   25810
 k-point 97 :   0.0000 0.0000 0.4211  plane waves:   25776
 k-point 98 :   0.0000 0.0000 0.4474  plane waves:   25778
 k-point 99 :   0.0000 0.0000 0.4737  plane waves:   25782
 k-point ** :   0.0000 0.0000 0.5000  plane waves:   25750
 k-point ** :   0.0000 0.0000 0.5000  plane waves:   25750
 k-point ** :   0.0263 0.0000 0.5000  plane waves:   25788
 k-point ** :   0.0526 0.0000 0.5000  plane waves:   25786
 k-point ** :   0.0789 0.0000 0.5000  plane waves:   25764
 k-point ** :   0.1053 0.0000 0.5000  plane waves:   25758
 k-point ** :   0.1316 0.0000 0.5000  plane waves:   25788
 k-point ** :   0.1579 0.0000 0.5000  plane waves:   25794
 k-point ** :   0.1842 0.0000 0.5000  plane waves:   25796
 k-point ** :   0.2105 0.0000 0.5000  plane waves:   25804
 k-point ** :   0.2368 0.0000 0.5000  plane waves:   25816
 k-point ** :   0.2632 0.0000 0.5000  plane waves:   25832
 k-point ** :   0.2895 0.0000 0.5000  plane waves:   25848
 k-point ** :   0.3158 0.0000 0.5000  plane waves:   25864
 k-point ** :   0.3421 0.0000 0.5000  plane waves:   25854
 k-point ** :   0.3684 0.0000 0.5000  plane waves:   25826
 k-point ** :   0.3947 0.0000 0.5000  plane waves:   25832
 k-point ** :   0.4211 0.0000 0.5000  plane waves:   25838
 k-point ** :   0.4474 0.0000 0.5000  plane waves:   25854
 k-point ** :   0.4737 0.0000 0.5000  plane waves:   25846
 k-point ** :   0.5000 0.0000 0.5000  plane waves:   25836
 k-point ** :   0.5000 0.0000 0.5000  plane waves:   25836
 k-point ** :   0.5000 0.0263 0.5000  plane waves:   25836
 k-point ** :   0.5000 0.0526 0.5000  plane waves:   25848
 k-point ** :   0.5000 0.0789 0.5000  plane waves:   25828
 k-point ** :   0.5000 0.1053 0.5000  plane waves:   25864
 k-point ** :   0.5000 0.1316 0.5000  plane waves:   25868
 k-point ** :   0.5000 0.1579 0.5000  plane waves:   25860
 k-point ** :   0.5000 0.1842 0.5000  plane waves:   25876
 k-point ** :   0.5000 0.2105 0.5000  plane waves:   25872
 k-point ** :   0.5000 0.2368 0.5000  plane waves:   25852
 k-point ** :   0.5000 0.2632 0.5000  plane waves:   25852
 k-point ** :   0.5000 0.2895 0.5000  plane waves:   25856
 k-point ** :   0.5000 0.3158 0.5000  plane waves:   25820
 k-point ** :   0.5000 0.3421 0.5000  plane waves:   25816
 k-point ** :   0.5000 0.3684 0.5000  plane waves:   25808
 k-point ** :   0.5000 0.3947 0.5000  plane waves:   25804
 k-point ** :   0.5000 0.4211 0.5000  plane waves:   25780
 k-point ** :   0.5000 0.4474 0.5000  plane waves:   25800
 k-point ** :   0.5000 0.4737 0.5000  plane waves:   25788
 k-point ** :   0.5000 0.5000 0.5000  plane waves:   25800
 k-point ** :   0.5000 0.5000 0.5000  plane waves:   25800
 k-point ** :   0.4737 0.5000 0.5000  plane waves:   25820
 k-point ** :   0.4474 0.5000 0.5000  plane waves:   25816
 k-point ** :   0.4211 0.5000 0.5000  plane waves:   25828
 k-point ** :   0.3947 0.5000 0.5000  plane waves:   25808
 k-point ** :   0.3684 0.5000 0.5000  plane waves:   25812
 k-point ** :   0.3421 0.5000 0.5000  plane waves:   25836
 k-point ** :   0.3158 0.5000 0.5000  plane waves:   25828
 k-point ** :   0.2895 0.5000 0.5000  plane waves:   25812
 k-point ** :   0.2632 0.5000 0.5000  plane waves:   25820
 k-point ** :   0.2368 0.5000 0.5000  plane waves:   25816
 k-point ** :   0.2105 0.5000 0.5000  plane waves:   25796
 k-point ** :   0.1842 0.5000 0.5000  plane waves:   25800
 k-point ** :   0.1579 0.5000 0.5000  plane waves:   25808
 k-point ** :   0.1316 0.5000 0.5000  plane waves:   25828
 k-point ** :   0.1053 0.5000 0.5000  plane waves:   25820
 k-point ** :   0.0789 0.5000 0.5000  plane waves:   25816
 k-point ** :   0.0526 0.5000 0.5000  plane waves:   25828
 k-point ** :   0.0263 0.5000 0.5000  plane waves:   25836
 k-point ** :   0.0000 0.5000 0.5000  plane waves:   25860
 k-point ** :   0.0000 0.5000 0.5000  plane waves:   25860
 k-point ** :   0.0000 0.4737 0.5000  plane waves:   25848
 k-point ** :   0.0000 0.4474 0.5000  plane waves:   25834
 k-point ** :   0.0000 0.4211 0.5000  plane waves:   25810
 k-point ** :   0.0000 0.3947 0.5000  plane waves:   25842
 k-point ** :   0.0000 0.3684 0.5000  plane waves:   25850
 k-point ** :   0.0000 0.3421 0.5000  plane waves:   25836
 k-point ** :   0.0000 0.3158 0.5000  plane waves:   25816
 k-point ** :   0.0000 0.2895 0.5000  plane waves:   25820
 k-point ** :   0.0000 0.2632 0.5000  plane waves:   25808
 k-point ** :   0.0000 0.2368 0.5000  plane waves:   25796
 k-point ** :   0.0000 0.2105 0.5000  plane waves:   25802
 k-point ** :   0.0000 0.1842 0.5000  plane waves:   25798
 k-point ** :   0.0000 0.1579 0.5000  plane waves:   25790
 k-point ** :   0.0000 0.1316 0.5000  plane waves:   25820
 k-point ** :   0.0000 0.1053 0.5000  plane waves:   25812
 k-point ** :   0.0000 0.0789 0.5000  plane waves:   25810
 k-point ** :   0.0000 0.0526 0.5000  plane waves:   25780
 k-point ** :   0.0000 0.0263 0.5000  plane waves:   25764
 k-point ** :   0.0000 0.0000 0.5000  plane waves:   25750
 k-point ** :   0.5000 0.0000 0.0000  plane waves:   25880
 k-point ** :   0.5000 0.0000 0.0263  plane waves:   25850
 k-point ** :   0.5000 0.0000 0.0526  plane waves:   25862
 k-point ** :   0.5000 0.0000 0.0789  plane waves:   25850
 k-point ** :   0.5000 0.0000 0.1053  plane waves:   25826
 k-point ** :   0.5000 0.0000 0.1316  plane waves:   25824
 k-point ** :   0.5000 0.0000 0.1579  plane waves:   25828
 k-point ** :   0.5000 0.0000 0.1842  plane waves:   25810
 k-point ** :   0.5000 0.0000 0.2105  plane waves:   25804
 k-point ** :   0.5000 0.0000 0.2368  plane waves:   25824
 k-point ** :   0.5000 0.0000 0.2632  plane waves:   25846
 k-point ** :   0.5000 0.0000 0.2895  plane waves:   25840
 k-point ** :   0.5000 0.0000 0.3158  plane waves:   25842
 k-point ** :   0.5000 0.0000 0.3421  plane waves:   25842
 k-point ** :   0.5000 0.0000 0.3684  plane waves:   25828
 k-point ** :   0.5000 0.0000 0.3947  plane waves:   25850
 k-point ** :   0.5000 0.0000 0.4211  plane waves:   25862
 k-point ** :   0.5000 0.0000 0.4474  plane waves:   25860
 k-point ** :   0.5000 0.0000 0.4737  plane waves:   25852
 k-point ** :   0.5000 0.0000 0.5000  plane waves:   25836
 k-point ** :   0.0000 0.5000 0.0000  plane waves:   25816
 k-point ** :   0.0000 0.5000 0.0263  plane waves:   25820
 k-point ** :   0.0000 0.5000 0.0526  plane waves:   25820
 k-point ** :   0.0000 0.5000 0.0789  plane waves:   25830
 k-point ** :   0.0000 0.5000 0.1053  plane waves:   25834
 k-point ** :   0.0000 0.5000 0.1316  plane waves:   25830
 k-point ** :   0.0000 0.5000 0.1579  plane waves:   25846
 k-point ** :   0.0000 0.5000 0.1842  plane waves:   25834
 k-point ** :   0.0000 0.5000 0.2105  plane waves:   25820
 k-point ** :   0.0000 0.5000 0.2368  plane waves:   25822
 k-point ** :   0.0000 0.5000 0.2632  plane waves:   25808
 k-point ** :   0.0000 0.5000 0.2895  plane waves:   25808
 k-point ** :   0.0000 0.5000 0.3158  plane waves:   25804
 k-point ** :   0.0000 0.5000 0.3421  plane waves:   25820
 k-point ** :   0.0000 0.5000 0.3684  plane waves:   25810
 k-point ** :   0.0000 0.5000 0.3947  plane waves:   25810
 k-point ** :   0.0000 0.5000 0.4211  plane waves:   25808
 k-point ** :   0.0000 0.5000 0.4474  plane waves:   25824
 k-point ** :   0.0000 0.5000 0.4737  plane waves:   25844
 k-point ** :   0.0000 0.5000 0.5000  plane waves:   25860
 k-point ** :   0.5000 0.5000 0.0000  plane waves:   25796
 k-point ** :   0.5000 0.5000 0.0263  plane waves:   25780
 k-point ** :   0.5000 0.5000 0.0526  plane waves:   25784
 k-point ** :   0.5000 0.5000 0.0789  plane waves:   25788
 k-point ** :   0.5000 0.5000 0.1053  plane waves:   25780
 k-point ** :   0.5000 0.5000 0.1316  plane waves:   25768
 k-point ** :   0.5000 0.5000 0.1579  plane waves:   25784
 k-point ** :   0.5000 0.5000 0.1842  plane waves:   25788
 k-point ** :   0.5000 0.5000 0.2105  plane waves:   25792
 k-point ** :   0.5000 0.5000 0.2368  plane waves:   25784
 k-point ** :   0.5000 0.5000 0.2632  plane waves:   25776
 k-point ** :   0.5000 0.5000 0.2895  plane waves:   25776
 k-point ** :   0.5000 0.5000 0.3158  plane waves:   25784
 k-point ** :   0.5000 0.5000 0.3421  plane waves:   25788
 k-point ** :   0.5000 0.5000 0.3684  plane waves:   25800
 k-point ** :   0.5000 0.5000 0.3947  plane waves:   25788
 k-point ** :   0.5000 0.5000 0.4211  plane waves:   25816
 k-point ** :   0.5000 0.5000 0.4474  plane waves:   25820
 k-point ** :   0.5000 0.5000 0.4737  plane waves:   25800
 k-point ** :   0.5000 0.5000 0.5000  plane waves:   25800

 maximum and minimum number of plane-waves per node :     12984    12837

 maximum number of plane-waves:     25890
 maximum index in each direction: 
   IXMAX=   16   IYMAX=   16   IZMAX=   23
   IXMIN=  -16   IYMIN=  -16   IZMIN=  -23


 parallel 3D FFT for wavefunctions:
    minimum data exchange during FFTs selected (reduces bandwidth)
 parallel 3D FFT for charge:
    minimum data exchange during FFTs selected (reduces bandwidth)


 total amount of memory used by VASP MPI-rank0  1656895. kBytes
=======================================================================

   base      :      30000. kBytes
   nonl-proj :    1350336. kBytes
   fftplans  :       9699. kBytes
   grid      :      14648. kBytes
   one-center:        155. kBytes
   wavefun   :     252057. kBytes
 
     INWAV:  cpu time    0.0010: real time    0.0008
 initial charge density was supplied:
 number of electron     175.9999984 magnetization 
 keeping initial charge density in first step


--------------------------------------------------------------------------------------------------------


 Maximum index for augmentation-charges         1074 (set IRDMAX)


--------------------------------------------------------------------------------------------------------


 First call to EWALD:  gamma=   0.180
 Maximum number of real-space cells 3x 3x 2
 Maximum number of reciprocal cells 2x 3x 3

    FEWALD:  cpu time    0.0040: real time    0.0291


--------------------------------------- Iteration      1(   1)  ---------------------------------------


    POTLOK:  cpu time    0.1790: real time    0.3980
    SETDIJ:  cpu time    0.2580: real time    0.3092
     EDDAV:  cpu time  206.5836: real time  207.8441
       DOS:  cpu time    1.0518: real time    2.0163
    --------------------------------------------
      LOOP:  cpu time  208.0724: real time  210.5677

 eigenvalue-minimisations  : 57600
 total energy-change (2. order) : 0.1470775E+04  (-0.7023409E+04)
 number of electron     175.9999984 magnetization 
 augmentation part      175.9999984 magnetization 

 Free energy of the ion-electron system (eV)
  ---------------------------------------------------
  alpha Z        PSCENC =       274.57589780
  Ewald energy   TEWEN  =     -8733.92648156
  -Hartree energ DENC   =     -3540.45062764
  -exchange      EXHF   =         0.00000000
  -V(xc)+E(xc)   XCENC  =        35.98679021
  PAW double counting   =     11933.82645364   -11520.60566502
  entropy T*S    EENTRO =         0.00238196
  eigenvalues    EBANDS =       361.77602809
  atomic energy  EATOM  =     12659.59018207
  Solvation  Ediel_sol  =         0.00000000
  ---------------------------------------------------
  free energy    TOTEN  =      1470.77495956 eV

  energy without entropy =     1470.77257760  energy(sigma->0) =     1470.77416557


--------------------------------------------------------------------------------------------------------




--------------------------------------- Iteration      1(   2)  ---------------------------------------


     EDDAV:  cpu time  233.3825: real time  234.5241
       DOS:  cpu time    0.0350: real time    0.0364
    --------------------------------------------
      LOOP:  cpu time  233.4175: real time  234.5605

 eigenvalue-minimisations  : 68520
 total energy-change (2. order) :-0.1352758E+04  (-0.1307801E+04)
 number of electron     175.9999984 magnetization 
 augmentation part      175.9999984 magnetization 

 Free energy of the ion-electron system (eV)
  ---------------------------------------------------
  alpha Z        PSCENC =       274.57589780
  Ewald energy   TEWEN  =     -8733.92648156
  -Hartree energ DENC   =     -3540.45062764
  -exchange      EXHF   =         0.00000000
  -V(xc)+E(xc)   XCENC  =        35.98679021
  PAW double counting   =     11933.82645364   -11520.60566502
  entropy T*S    EENTRO =         0.00343496
  eigenvalues    EBANDS =      -990.98277859
  atomic energy  EATOM  =     12659.59018207
  Solvation  Ediel_sol  =         0.00000000
  ---------------------------------------------------
  free energy    TOTEN  =       118.01720587 eV

  energy without entropy =      118.01377091  energy(sigma->0) =      118.01606089


--------------------------------------------------------------------------------------------------------




--------------------------------------- Iteration      1(   3)  ---------------------------------------


     EDDAV:  cpu time  242.0982: real time  242.9244
       DOS:  cpu time    0.0390: real time    0.0388
    --------------------------------------------
      LOOP:  cpu time  242.1372: real time  242.9632

 eigenvalue-minimisations  : 71736
 total energy-change (2. order) :-0.1664523E+03  (-0.1654128E+03)
 number of electron     175.9999984 magnetization 
 augmentation part      175.9999984 magnetization 

 Free energy of the ion-electron system (eV)
  ---------------------------------------------------
  alpha Z        PSCENC =       274.57589780
  Ewald energy   TEWEN  =     -8733.92648156
  -Hartree energ DENC   =     -3540.45062764
  -exchange      EXHF   =         0.00000000
  -V(xc)+E(xc)   XCENC  =        35.98679021
  PAW double counting   =     11933.82645364   -11520.60566502
  entropy T*S    EENTRO =         0.00188794
  eigenvalues    EBANDS =     -1157.43348969
  atomic energy  EATOM  =     12659.59018207
  Solvation  Ediel_sol  =         0.00000000
  ---------------------------------------------------
  free energy    TOTEN  =       -48.43505225 eV

  energy without entropy =      -48.43694018  energy(sigma->0) =      -48.43568156


--------------------------------------------------------------------------------------------------------




--------------------------------------- Iteration      1(   4)  ---------------------------------------


     EDDAV:  cpu time  257.8008: real time  258.6534
       DOS:  cpu time    0.0370: real time    0.0412
    --------------------------------------------
      LOOP:  cpu time  257.8378: real time  258.6946

 eigenvalue-minimisations  : 78096
 total energy-change (2. order) :-0.7857474E+01  (-0.7847507E+01)
 number of electron     175.9999984 magnetization 
 augmentation part      175.9999984 magnetization 

 Free energy of the ion-electron system (eV)
  ---------------------------------------------------
  alpha Z        PSCENC =       274.57589780
  Ewald energy   TEWEN  =     -8733.92648156
  -Hartree energ DENC   =     -3540.45062764
  -exchange      EXHF   =         0.00000000
  -V(xc)+E(xc)   XCENC  =        35.98679021
  PAW double counting   =     11933.82645364   -11520.60566502
  entropy T*S    EENTRO =         0.00205175
  eigenvalues    EBANDS =     -1165.29112701
  atomic energy  EATOM  =     12659.59018207
  Solvation  Ediel_sol  =         0.00000000
  ---------------------------------------------------
  free energy    TOTEN  =       -56.29252575 eV

  energy without entropy =      -56.29457750  energy(sigma->0) =      -56.29320967


--------------------------------------------------------------------------------------------------------




--------------------------------------- Iteration      1(   5)  ---------------------------------------


     EDDAV:  cpu time  251.2998: real time  252.6104
       DOS:  cpu time    0.0350: real time    0.0365
    --------------------------------------------
      LOOP:  cpu time  251.3348: real time  252.6469

 eigenvalue-minimisations  : 75336
 total energy-change (2. order) :-0.2461379E+00  (-0.2461202E+00)
 number of electron     175.9999984 magnetization 
 augmentation part      175.9999984 magnetization 

 Free energy of the ion-electron system (eV)
  ---------------------------------------------------
  alpha Z        PSCENC =       274.57589780
  Ewald energy   TEWEN  =     -8733.92648156
  -Hartree energ DENC   =     -3540.45062764
  -exchange      EXHF   =         0.00000000
  -V(xc)+E(xc)   XCENC  =        35.98679021
  PAW double counting   =     11933.82645364   -11520.60566502
  entropy T*S    EENTRO =         0.00205259
  eigenvalues    EBANDS =     -1165.53726576
  atomic energy  EATOM  =     12659.59018207
  Solvation  Ediel_sol  =         0.00000000
  ---------------------------------------------------
  free energy    TOTEN  =       -56.53866367 eV

  energy without entropy =      -56.54071625  energy(sigma->0) =      -56.53934786


--------------------------------------------------------------------------------------------------------




--------------------------------------- Iteration      1(   6)  ---------------------------------------


     EDDAV:  cpu time  285.0187: real time  286.2231
       DOS:  cpu time    0.0380: real time    0.0379
    --------------------------------------------
      LOOP:  cpu time  285.0567: real time  286.2610

 eigenvalue-minimisations  : 89184
 total energy-change (2. order) :-0.1079333E-01  (-0.1079313E-01)
 number of electron     175.9999984 magnetization 
 augmentation part      175.9999984 magnetization 

 Free energy of the ion-electron system (eV)
  ---------------------------------------------------
  alpha Z        PSCENC =       274.57589780
  Ewald energy   TEWEN  =     -8733.92648156
  -Hartree energ DENC   =     -3540.45062764
  -exchange      EXHF   =         0.00000000
  -V(xc)+E(xc)   XCENC  =        35.98679021
  PAW double counting   =     11933.82645364   -11520.60566502
  entropy T*S    EENTRO =         0.00205265
  eigenvalues    EBANDS =     -1165.54805915
  atomic energy  EATOM  =     12659.59018207
  Solvation  Ediel_sol  =         0.00000000
  ---------------------------------------------------
  free energy    TOTEN  =       -56.54945699 eV

  energy without entropy =      -56.55150964  energy(sigma->0) =      -56.55014121


--------------------------------------------------------------------------------------------------------




--------------------------------------- Iteration      1(   7)  ---------------------------------------


[...]
     66       0.0257      2.00000
     67       0.0461      2.00000
     68       0.0461      2.00000
     69       0.3954      2.00000
     70       0.3954      2.00000
     71       0.3974      2.00000
     72       0.3974      2.00000
     73       0.4547      2.00000
     74       0.4547      2.00000
     75       0.4561      2.00000
     76       0.4561      2.00000
     77       0.5501      2.00000
     78       0.5501      2.00000
     79       0.5508      2.00000
     80       0.5508      2.00000
     81       0.7025      2.00000
     82       0.7025      2.00000
     83       0.7141      2.00000
     84       0.7141      2.00000
     85       0.9576      2.00000
     86       0.9576      2.00000
     87       0.9615      2.00000
     88       0.9615      2.00000
     89       3.9481     -0.00000
     90       3.9481     -0.00000
     91       3.9715     -0.00000
     92       3.9715     -0.00000
     93       5.0325     -0.00000
     94       5.0325     -0.00000
     95       5.2335     -0.00000
     96       5.2335     -0.00000
     97       6.2161     -0.00000
     98       6.2161     -0.00000
     99       6.2259     -0.00000
    100       6.2259     -0.00000
    101       6.9607     -0.00000
    102       6.9607     -0.00000
    103       6.9705     -0.00000
    104       6.9705     -0.00000
    105       7.0494     -0.00000
    106       7.0494     -0.00000
    107       7.0559     -0.00000
    108       7.0559     -0.00000
    109       7.2246      0.00000
    110       7.2246      0.00000
    111       7.2298      0.00000
    112       7.2298      0.00000
    113       7.5320      0.00000
    114       7.5320      0.00000
    115       7.5437      0.00000
    116       7.5437      0.00000
    117       7.8729      0.00000
    118       7.8730      0.00000
    119       7.9129      0.00000
    120       7.9130      0.00000

 k-point   240 :       0.5000    0.5000    0.5000
  band No.  band energies     occupation 
      1     -19.0579      2.00000
      2     -19.0579      2.00000
      3     -19.0579      2.00000
      4     -19.0579      2.00000
      5     -14.8716      2.00000
      6     -14.8716      2.00000
      7     -14.8716      2.00000
      8     -14.8716      2.00000
      9     -14.8621      2.00000
     10     -14.8621      2.00000
     11     -14.8621      2.00000
     12     -14.8621      2.00000
     13     -14.8304      2.00000
     14     -14.8304      2.00000
     15     -14.8304      2.00000
     16     -14.8304      2.00000
     17     -14.8252      2.00000
     18     -14.8252      2.00000
     19     -14.8252      2.00000
     20     -14.8252      2.00000
     21     -14.8210      2.00000
     22     -14.8210      2.00000
     23     -14.8210      2.00000
     24     -14.8210      2.00000
     25     -10.0759      2.00000
     26     -10.0759      2.00000
     27     -10.0759      2.00000
     28     -10.0759      2.00000
     29      -9.8828      2.00000
     30      -9.8828      2.00000
     31      -9.8828      2.00000
     32      -9.8828      2.00000
     33      -9.7128      2.00000
     34      -9.7128      2.00000
     35      -9.7128      2.00000
     36      -9.7128      2.00000
     37      -5.9774      2.00000
     38      -5.9774      2.00000
     39      -5.9774      2.00000
     40      -5.9774      2.00000
     41      -5.9082      2.00000
     42      -5.9082      2.00000
     43      -5.9082      2.00000
     44      -5.9082      2.00000
     45      -5.8725      2.00000
     46      -5.8725      2.00000
     47      -5.8725      2.00000
     48      -5.8725      2.00000
     49      -5.7865      2.00000
     50      -5.7865      2.00000
     51      -5.7865      2.00000
     52      -5.7865      2.00000
     53      -1.3385      2.00000
     54      -1.3385      2.00000
     55      -1.3385      2.00000
     56      -1.3385      2.00000
     57      -0.7475      2.00000
     58      -0.7475      2.00000
     59      -0.7475      2.00000
     60      -0.7475      2.00000
     61      -0.3079      2.00000
     62      -0.3079      2.00000
     63      -0.3079      2.00000
     64      -0.3079      2.00000
     65       0.0351      2.00000
     66       0.0351      2.00000
     67       0.0351      2.00000
     68       0.0351      2.00000
     69       0.3968      2.00000
     70       0.3968      2.00000
     71       0.3968      2.00000
     72       0.3968      2.00000
     73       0.4553      2.00000
     74       0.4553      2.00000
     75       0.4553      2.00000
     76       0.4553      2.00000
     77       0.5505      2.00000
     78       0.5505      2.00000
     79       0.5505      2.00000
     80       0.5505      2.00000
     81       0.7087      2.00000
     82       0.7087      2.00000
     83       0.7087      2.00000
     84       0.7087      2.00000
     85       0.9588      2.00000
     86       0.9588      2.00000
     87       0.9588      2.00000
     88       0.9588      2.00000
     89       3.9599     -0.00000
     90       3.9599     -0.00000
     91       3.9599     -0.00000
     92       3.9599     -0.00000
     93       5.1335     -0.00000
     94       5.1335     -0.00000
     95       5.1335     -0.00000
     96       5.1335     -0.00000
     97       6.2203     -0.00000
     98       6.2203     -0.00000
     99       6.2203     -0.00000
    100       6.2203     -0.00000
    101       6.9667     -0.00000
    102       6.9667     -0.00000
    103       6.9667     -0.00000
    104       6.9667     -0.00000
    105       7.0523     -0.00000
    106       7.0523     -0.00000
    107       7.0523     -0.00000
    108       7.0523     -0.00000
    109       7.2270      0.00000
    110       7.2270      0.00000
    111       7.2270      0.00000
    112       7.2270      0.00000
    113       7.5363      0.00000
    114       7.5363      0.00000
    115       7.5363      0.00000
    116       7.5363      0.00000
    117       7.8929      0.00000
    118       7.8929      0.00000
    119       7.8929      0.00000
    120       7.8929      0.00000


--------------------------------------------------------------------------------------------------------


 soft charge-density along one line, spin component           1
         0         1         2         3         4         5         6         7         8         9
 total charge-density along one line
 
 pseudopotential strength for first ion, spin component:           1
 64.868  68.440  -0.006  -0.004   0.007  -0.007  -0.005   0.010
 68.440  72.212  -0.006  -0.004   0.008  -0.008  -0.005   0.010
 -0.006  -0.006  16.783   0.001   0.009  22.366   0.001   0.012
 -0.004  -0.004   0.001  16.773   0.000   0.001  22.354   0.000
  0.007   0.008   0.009   0.000  16.783   0.012   0.000  22.366
 -0.007  -0.008  22.366   0.001   0.012  29.817   0.002   0.016
 -0.005  -0.005   0.001  22.354   0.000   0.002  29.800   0.000
  0.010   0.010   0.012   0.000  22.366   0.016   0.000  29.816
  0.013   0.014   0.002   0.000  -0.001   0.002   0.000  -0.002
  0.001   0.001  -0.001  -0.001   0.000  -0.001  -0.002   0.000
 -0.008  -0.008   0.001  -0.001  -0.001   0.001  -0.001  -0.001
  0.000   0.000   0.000   0.002  -0.001   0.000   0.002  -0.001
 -0.000  -0.000   0.001  -0.000   0.002   0.001  -0.000   0.002
 total augmentation occupancy for first ion, spin component:           1
  2.000   0.000   0.000   0.000   0.000   0.000   0.000   0.000   0.000   0.000   0.000   0.000   0.000
  0.000   0.000   0.000   0.000   0.000   0.000   0.000   0.000   0.000   0.000   0.000   0.000   0.000
  0.000   0.000   1.667   0.000   0.000   0.000   0.000   0.000   0.000   0.000   0.000   0.000   0.000
  0.000   0.000   0.000   1.667   0.000   0.000   0.000   0.000   0.000   0.000   0.000   0.000   0.000
  0.000   0.000   0.000   0.000   1.667   0.000   0.000   0.000   0.000   0.000   0.000   0.000   0.000
  0.000   0.000   0.000   0.000   0.000   0.000   0.000   0.000   0.000   0.000   0.000   0.000   0.000
  0.000   0.000   0.000   0.000   0.000   0.000   0.000   0.000   0.000   0.000   0.000   0.000   0.000
  0.000   0.000   0.000   0.000   0.000   0.000   0.000   0.000   0.000   0.000   0.000   0.000   0.000
  0.000   0.000   0.000   0.000   0.000   0.000   0.000   0.000   0.000   0.000   0.000   0.000   0.000
  0.000   0.000   0.000   0.000   0.000   0.000   0.000   0.000   0.000   0.000   0.000   0.000   0.000
  0.000   0.000   0.000   0.000   0.000   0.000   0.000   0.000   0.000   0.000   0.000   0.000   0.000
  0.000   0.000   0.000   0.000   0.000   0.000   0.000   0.000   0.000   0.000   0.000   0.000   0.000
  0.000   0.000   0.000   0.000   0.000   0.000   0.000   0.000   0.000   0.000   0.000   0.000   0.000


------------------------ aborting loop because EDIFF is reached ----------------------------------------


 


 total charge     
 
# of ion       s       p       d       tot
------------------------------------------
    1        1.505   2.804   0.007   4.316
    2        1.505   2.804   0.007   4.316
    3        1.505   2.804   0.007   4.316
    4        1.505   2.804   0.007   4.316
    5        1.505   2.804   0.007   4.316
    6        1.505   2.804   0.007   4.316
    7        1.505   2.804   0.007   4.316
    8        1.505   2.804   0.007   4.316
    9        1.505   2.806   0.007   4.318
   10        1.505   2.806   0.007   4.318
   11        1.505   2.806   0.007   4.318
   12        1.505   2.806   0.007   4.318
   13        1.490   0.482   9.838  11.810
   14        1.490   0.482   9.838  11.810
   15        1.490   0.482   9.838  11.810
   16        1.490   0.482   9.838  11.810
   17        1.836   4.707   0.024   6.566
   18        1.836   4.707   0.024   6.566
   19        1.836   4.707   0.024   6.566
   20        1.836   4.707   0.024   6.566
--------------------------------------------------
tot         31.358  54.417  39.526 125.301
 
    CHARGE:  cpu time   17.1344: real time   17.3543
    FORLOC:  cpu time    0.0120: real time    0.0371
    FORNL :  cpu time   36.6254: real time   36.7192
    STRESS:  cpu time  104.7331: real time  105.2080
    FORCOR:  cpu time    0.1560: real time    0.3546
    FORHAR:  cpu time    0.0490: real time    0.1425
    OFIELD:  cpu time    0.0010: real time    0.0161

  FORCE on cell =-STRESS in cart. coord.  units (eV):
  Direction    XX          YY          ZZ          XY          YZ          ZX
  --------------------------------------------------------------------------------------
  Alpha Z   274.57590   274.57590   274.57590
  Ewald   -2951.30367 -2917.58973 -2865.05795    -0.00001     0.00001     0.00000
  Hartree  1155.79484  1177.48240  1206.96156     0.00000    -0.00000    -0.00000
  E(xc)    -729.23250  -729.17661  -729.15367    -0.00000     0.00000    -0.00000
  Local   -1684.00561 -1741.11360 -1821.40268     0.00001    -0.00000     0.00000
  n-local  1991.45701  1992.16337  1991.70250    -0.00000    -0.00000    -0.00000
  augment    -3.38641    -3.94393    -3.59331    -0.00000    -0.00000    -0.00000
  Kinetic  1950.27521  1953.35835  1950.07091     0.00000    -0.00000    -0.00000
  Fock        0.00000     0.00000     0.00000     0.00000     0.00000     0.00000
  -------------------------------------------------------------------------------------
  Total       4.17476     5.75614     4.10326     0.00000     0.00000     0.00000
  in kB       6.97584     9.61826     6.85637     0.00000     0.00000     0.00000
  external pressure =        7.82 kB  Pullay stress =        0.00 kB


 VOLUME and BASIS-vectors are now :
 -----------------------------------------------------------------------------
  energy-cutoff  :      520.00
  volume of cell :      958.84
      direct lattice vectors                 reciprocal lattice vectors
     8.675100327  0.000000000  0.000000000     0.115272442  0.000000000  0.000000000
     0.000000000  8.824000359  0.000000000     0.000000000  0.113327285  0.000000000
     0.000000000  0.000000000 12.525799751     0.000000000  0.000000000  0.079835222

  length of vectors
     8.675100327  8.824000359 12.525799751     0.115272442  0.113327285  0.079835222


 FORCES acting on ions
    electron-ion (+dipol)            ewald-force                    non-local-force                 convergence-correction
 -----------------------------------------------------------------------------------------------
   0.238E+02 -.190E+02 -.171E+02   -.244E+02 0.195E+02 0.175E+02   0.550E+00 -.480E+00 -.382E+00   0.126E-01 -.982E-02 -.755E-02
   -.238E+02 0.190E+02 0.171E+02   0.244E+02 -.195E+02 -.175E+02   -.550E+00 0.480E+00 0.382E+00   -.126E-01 0.975E-02 0.753E-02
   0.238E+02 0.190E+02 0.171E+02   -.244E+02 -.195E+02 -.175E+02   0.550E+00 0.480E+00 0.382E+00   0.126E-01 0.981E-02 0.754E-02
   -.238E+02 -.190E+02 -.171E+02   0.244E+02 0.195E+02 0.175E+02   -.550E+00 -.480E+00 -.382E+00   -.126E-01 -.976E-02 -.755E-02
   -.238E+02 0.190E+02 -.171E+02   0.244E+02 -.195E+02 0.175E+02   -.550E+00 0.480E+00 -.382E+00   -.126E-01 0.975E-02 -.754E-02
   0.238E+02 -.190E+02 0.171E+02   -.244E+02 0.195E+02 -.175E+02   0.550E+00 -.480E+00 0.382E+00   0.126E-01 -.981E-02 0.755E-02
   -.238E+02 -.190E+02 0.171E+02   0.244E+02 0.195E+02 -.175E+02   -.550E+00 -.480E+00 0.382E+00   -.126E-01 -.975E-02 0.754E-02
   0.238E+02 0.190E+02 -.171E+02   -.244E+02 -.195E+02 0.175E+02   0.550E+00 0.480E+00 -.382E+00   0.126E-01 0.981E-02 -.755E-02
   0.346E+02 -.120E+02 -.105E-03   -.354E+02 0.124E+02 -.595E-04   0.730E+00 -.385E+00 0.000E+00   0.276E-01 -.153E-03 0.416E-04
   -.346E+02 0.120E+02 0.238E-05   0.354E+02 -.124E+02 0.101E-04   -.730E+00 0.385E+00 0.442E-21   -.276E-01 0.184E-03 -.125E-04
   0.346E+02 0.120E+02 0.228E-05   -.354E+02 -.124E+02 0.101E-04   0.730E+00 0.385E+00 0.556E-21   0.276E-01 0.165E-03 -.125E-04
   -.346E+02 -.120E+02 -.105E-03   0.354E+02 0.124E+02 -.595E-04   -.730E+00 -.385E+00 0.000E+00   -.276E-01 -.162E-03 0.416E-04
   -.226E-05 -.196E-04 0.731E-05   -.946E-05 -.823E-04 0.310E-04   0.000E+00 0.000E+00 0.000E+00   0.458E-05 0.752E-04 -.286E-04
   -.185E-04 -.535E-05 0.104E-04   -.780E-04 -.228E-04 0.438E-04   0.000E+00 0.000E+00 0.000E+00   0.724E-04 0.187E-04 -.404E-04
   -.366E-07 -.188E-04 0.329E-05   -.251E-06 -.790E-04 0.141E-04   0.000E+00 0.000E+00 0.000E+00   -.369E-05 0.721E-04 -.113E-04
   -.208E-04 -.464E-05 0.244E-06   -.872E-04 -.195E-04 0.123E-05   0.000E+00 0.000E+00 0.000E+00   0.807E-04 0.156E-04 0.549E-06
   -.936E+01 -.266E+02 0.325E-05   0.945E+01 0.266E+02 0.141E-04   -.736E-01 0.515E-01 0.132E-22   -.124E-01 -.219E-02 -.169E-04
   0.936E+01 0.266E+02 -.139E-03   -.945E+01 -.266E+02 -.367E-04   0.736E-01 -.515E-01 0.000E+00   0.123E-01 0.216E-02 0.698E-04
   -.936E+01 0.266E+02 -.139E-03   0.945E+01 -.266E+02 -.367E-04   -.736E-01 -.515E-01 0.000E+00   -.123E-01 0.215E-02 0.698E-04
   0.936E+01 -.266E+02 0.330E-05   -.945E+01 0.266E+02 0.141E-04   0.736E-01 0.515E-01 0.513E-22   0.124E-01 -.218E-02 -.169E-04
 -----------------------------------------------------------------------------------------------
   0.128E-03 -.195E-03 -.548E-03   0.178E-14 0.284E-13 -.185E-13   -.236E-15 -.555E-16 0.106E-20   0.965E-04 0.146E-03 0.527E-04
 
 
 POSITION                                       TOTAL-FORCE (eV/Angst)
 -----------------------------------------------------------------------------------
      1.66797      2.69903      6.76746        -0.005847      0.003758      0.004302
      7.00713      6.12497      5.75834         0.005847     -0.003758     -0.004302
      6.00552      1.71297      5.75834        -0.005847     -0.003758     -0.004302
      2.66958      7.11103      6.76746         0.005847      0.003758      0.004302
      7.00713      6.12497      0.50456         0.005847     -0.003758      0.004302
      1.66797      2.69903     12.02124        -0.005847      0.003758     -0.004302
      2.66958      7.11103     12.02124         0.005847      0.003758     -0.004302
      6.00552      1.71297      0.50456        -0.005847     -0.003758      0.004302
      7.96010      0.00066      9.39435        -0.013202      0.000515      0.000000
      0.71500      8.82334      3.13145         0.013202     -0.000515      0.000000
      3.62255      4.41134      3.13145        -0.013202     -0.000515     -0.000000
      5.05255      4.41266      9.39435         0.013202      0.000515      0.000000
      0.00000      0.00000      6.26290        -0.000000      0.000000      0.000000
      4.33755      4.41200      6.26290        -0.000000      0.000000      0.000000
      0.00000      0.00000      0.00000        -0.000000      0.000000      0.000000
      4.33755      4.41200      0.00000        -0.000000      0.000000      0.000000
      8.48474      3.74480      3.13145         0.000441      0.000018      0.000000
      0.19036      5.07920      9.39435        -0.000441     -0.000018      0.000000
      4.14719      0.66720      9.39435         0.000441     -0.000018      0.000000
      4.52791      8.15680      3.13145        -0.000441      0.000018     -0.000000
 -----------------------------------------------------------------------------------
    total drift:                                0.000225     -0.000049     -0.000495


--------------------------------------------------------------------------------------------------------



  FREE ENERGIE OF THE ION-ELECTRON SYSTEM (eV)
  ---------------------------------------------------
  free  energy   TOTEN  =       -56.54962624 eV

  energy  without entropy=      -56.55167889  energy(sigma->0) =      -56.55031045
 


--------------------------------------------------------------------------------------------------------


    POTLOK:  cpu time    0.1810: real time    0.4228


--------------------------------------------------------------------------------------------------------


 writing wavefunctions
     LOOP+:  cpu time 2499.3200: real time 2513.8808
    4ORBIT:  cpu time    0.0000: real time    0.0001
 


 total charge     
 
# of ion       s       p       d       tot
------------------------------------------
    1        1.505   2.804   0.007   4.316
    2        1.505   2.804   0.007   4.316
    3        1.505   2.804   0.007   4.316
    4        1.505   2.804   0.007   4.316
    5        1.505   2.804   0.007   4.316
    6        1.505   2.804   0.007   4.316
    7        1.505   2.804   0.007   4.316
    8        1.505   2.804   0.007   4.316
    9        1.505   2.806   0.007   4.318
   10        1.505   2.806   0.007   4.318
   11        1.505   2.806   0.007   4.318
   12        1.505   2.806   0.007   4.318
   13        1.490   0.482   9.838  11.810
   14        1.490   0.482   9.838  11.810
   15        1.490   0.482   9.838  11.810
   16        1.490   0.482   9.838  11.810
   17        1.836   4.707   0.024   6.566
   18        1.836   4.707   0.024   6.566
   19        1.836   4.707   0.024   6.566
   20        1.836   4.707   0.024   6.566
--------------------------------------------------
tot         31.358  54.417  39.526 125.301
 

 total amount of memory used by VASP MPI-rank0  1656895. kBytes
=======================================================================

   base      :      30000. kBytes
   nonl-proj :    1350336. kBytes
   fftplans  :       9699. kBytes
   grid      :      14648. kBytes
   one-center:        155. kBytes
   wavefun   :     252057. kBytes
 
  
  
 General timing and accounting informations for this job:
 ========================================================
  
                  Total CPU time used (sec):     2658.101
                            User time (sec):     2232.283
                          System time (sec):      425.818
                         Elapsed time (sec):     2677.323
  
                   Maximum memory used (kb):     1518288.
                   Average memory used (kb):           0.
  
                          Minor page faults:       406596
                          Major page faults:          377
                 Voluntary context switches:         9502
