 vasp.5.4.4.18Apr17-6-g9f103f2a35 (build Aug 19 2019 13:40:55) complex          
  
 executed on             LinuxIFC date 2020.04.13  19:14:15
 running on  240 total cores
 distrk:  each k-point on  240 cores,    1 groups
 distr:  one band on NCORES_PER_BAND=   1 cores,  240 groups


--------------------------------------------------------------------------------------------------------


 INCAR:
 POTCAR:    PAW_PBE Pb_d 06Sep2000                
 POTCAR:    PAW_PBE I 08Apr2002                   
 POTCAR:    PAW_PBE Cs_sv 08Apr2002               

 ----------------------------------------------------------------------------- 
|                                                                             |
|           W    W    AA    RRRRR   N    N  II  N    N   GGGG   !!!           |
|           W    W   A  A   R    R  NN   N  II  NN   N  G    G  !!!           |
|           W    W  A    A  R    R  N N  N  II  N N  N  G       !!!           |
|           W WW W  AAAAAA  RRRRR   N  N N  II  N  N N  G  GGG   !            |
|           WW  WW  A    A  R   R   N   NN  II  N   NN  G    G                |
|           W    W  A    A  R    R  N    N  II  N    N   GGGG   !!!           |
|                                                                             |
|      For optimal performance we recommend to set                            |
|        NCORE= 4 - approx SQRT( number of cores)                             |
|      NCORE specifies how many cores store one orbital (NPAR=cpu/NCORE).     |
|      This setting can  greatly improve the performance of VASP for DFT.     |
|      The default,   NCORE=1            might be grossly inefficient         |
|      on modern multi-core architectures or massively parallel machines.     |
|      Do your own testing !!!!                                               |
|      Unfortunately you need to use the default for GW and RPA calculations. |
|      (for HF NCORE is supported but not extensively tested yet)             |
|                                                                             |
 ----------------------------------------------------------------------------- 

 POTCAR:    PAW_PBE Pb_d 06Sep2000                
   VRHFIN =Pb:                                                                  
   LEXCH  = PE                                                                  
   EATOM  =  1661.6185 eV,  122.1255 Ry                                         
                                                                                
   TITEL  = PAW_PBE Pb_d 06Sep2000                                              
   LULTRA =        F    use ultrasoft PP ?                                      
   IUNSCR =        1    unscreen: 0-lin 1-nonlin 2-no                           
   RPACOR =    2.200    partial core radius                                     
   POMASS =  207.200; ZVAL   =   14.000    mass and valenz                      
   RCORE  =    2.500    outmost cutoff radius                                   
   RWIGS  =    3.260; RWIGS  =    1.725    wigner-seitz radius (au A)           
   ENMAX  =  237.835; ENMIN  =  178.376 eV                                      
   ICORE  =        3    local potential                                         
   LCOR   =        T    correct aug charges                                     
   LPAW   =        T    paw PP                                                  
   EAUG   =  391.914                                                            
   DEXC   =    0.000                                                            
   RMAX   =    2.565    core radius for proj-oper                               
   RAUG   =    1.300    factor for augmentation sphere                          
   RDEP   =    2.643    radius for radial grids                                 
   RDEPT  =    2.092    core radius for aug-charge                              
                                                                                
   Atomic configuration                                                         
   16 entries                                                                   
     n  l   j            E        occ.                                          
     1  0  0.50    -88091.8466   2.0000                                         
     2  0  0.50    -15753.4197   2.0000                                         
     2  1  1.50    -13508.1797   6.0000                                         
     3  0  0.50     -3781.7194   2.0000                                         
     3  1  1.50     -3138.2529   6.0000                                         
     3  2  2.50     -2483.2977  10.0000                                         
     4  0  0.50      -856.2895   2.0000                                         
     4  1  1.50      -645.4942   6.0000                                         
     4  2  2.50      -401.8768  10.0000                                         
     4  3  3.50      -132.9059  14.0000                                         
     5  0  0.50      -144.0950   2.0000                                         
     5  1  1.50       -85.7879   6.0000                                         
     5  2  2.50       -21.1769  10.0000                                         
     6  0  0.50       -12.0372   2.0000                                         
     6  1  1.50        -3.4971   2.0000                                         
     5  3  2.50        -2.7212   0.0000                                         
   Description                                                                  
     l       E           TYP  RCUT    TYP  RCUT                                 
     2    -21.1768523     23  2.500                                             
     2      1.3605826     23  2.500                                             
     0    -12.0371562     23  2.500                                             
     0     13.6058260     23  2.500                                             
     1     -3.4971339     23  2.500                                             
     1     13.6058260     23  2.500                                             
     3     -1.3605826      7  2.500                                             
  local pseudopotential read in
  partial core-charges read in
  partial kinetic energy density read in
  atomic valenz-charges read in
  non local Contribution for L=           2  read in
    real space projection operators read in
  non local Contribution for L=           2  read in
    real space projection operators read in
  non local Contribution for L=           0  read in
    real space projection operators read in
  non local Contribution for L=           0  read in
    real space projection operators read in
  non local Contribution for L=           1  read in
    real space projection operators read in
  non local Contribution for L=           1  read in
    real space projection operators read in
    PAW grid and wavefunctions read in
 
   number of l-projection  operators is LMAX  =           6
   number of lm-projection operators is LMMAX =          18
 
 POTCAR:    PAW_PBE I 08Apr2002                   
   VRHFIN =I : s2p5                                                             
   LEXCH  = PE                                                                  
   EATOM  =   315.8678 eV,   23.2156 Ry                                         
                                                                                
   TITEL  = PAW_PBE I 08Apr2002                                                 
   LULTRA =        F    use ultrasoft PP ?                                      
   IUNSCR =        1    unscreen: 0-lin 1-nonlin 2-no                           
   RPACOR =    2.200    partial core radius                                     
   POMASS =  126.904; ZVAL   =    7.000    mass and valenz                      
   RCORE  =    2.300    outmost cutoff radius                                   
   RWIGS  =    2.810; RWIGS  =    1.487    wigner-seitz radius (au A)           
   ENMAX  =  175.647; ENMIN  =  131.735 eV                                      
   ICORE  =        3    local potential                                         
   LCOR   =        T    correct aug charges                                     
   LPAW   =        T    paw PP                                                  
   EAUG   =  370.139                                                            
   DEXC   =    0.000                                                            
   RMAX   =    2.359    core radius for proj-oper                               
   RAUG   =    1.300    factor for augmentation sphere                          
   RDEP   =    2.392    radius for radial grids                                 
   RDEPT  =    2.170    core radius for aug-charge                              
                                                                                
   Atomic configuration                                                         
   13 entries                                                                   
     n  l   j            E        occ.                                          
     1  0  0.50    -32976.3739   2.0000                                         
     2  0  0.50     -5094.5933   2.0000                                         
     2  1  1.50     -4572.0131   6.0000                                         
     3  0  0.50     -1028.2813   2.0000                                         
     3  1  1.50      -859.0250   6.0000                                         
     3  2  2.50      -605.7620  10.0000                                         
     4  0  0.50      -180.5540   2.0000                                         
     4  1  1.50      -127.5306   6.0000                                         
     4  2  2.50       -50.2720  10.0000                                         
     5  0  0.50       -17.4058   2.0000                                         
     5  1  0.50        -7.0851   5.0000                                         
     5  2  1.50        -7.0750   0.0000                                         
     4  3  2.50        -7.0750   0.0000                                         
   Description                                                                  
     l       E           TYP  RCUT    TYP  RCUT                                 
     0    -17.4058016     23  2.300                                             
     0    -18.7663842     23  2.300                                             
     1     -7.0850686     23  2.300                                             
     1     -4.2150896     23  2.300                                             
     2     -7.0750295     23  2.300                                             
     3     -1.3605826     23  2.300                                             
  local pseudopotential read in
  partial core-charges read in
  partial kinetic energy density read in
  atomic valenz-charges read in
  non local Contribution for L=           0  read in
    real space projection operators read in
  non local Contribution for L=           0  read in
    real space projection operators read in
  non local Contribution for L=           1  read in
    real space projection operators read in
  non local Contribution for L=           1  read in
    real space projection operators read in
  non local Contribution for L=           2  read in
    real space projection operators read in
    PAW grid and wavefunctions read in
 
   number of l-projection  operators is LMAX  =           5
   number of lm-projection operators is LMMAX =          13
 
 POTCAR:    PAW_PBE Cs_sv 08Apr2002               
   VRHFIN =Cs: 5s5p6s                                                           
   LEXCH  = PE                                                                  
   EATOM  =   555.6835 eV,   40.8416 Ry                                         
                                                                                
   TITEL  = PAW_PBE Cs_sv 08Apr2002                                             
   LULTRA =        F    use ultrasoft PP ?                                      
   IUNSCR =        1    unscreen: 0-lin 1-nonlin 2-no                           
   RPACOR =    2.200    partial core radius                                     
   POMASS =  132.900; ZVAL   =    9.000    mass and valenz                      
   RCORE  =    2.500    outmost cutoff radius                                   
   RWIGS  =    2.500; RWIGS  =    1.323    wigner-seitz radius (au A)           
   ENMAX  =  220.318; ENMIN  =  165.238 eV                                      
   RCLOC  =    2.207    cutoff for local pot                                    
   LCOR   =        T    correct aug charges                                     
   LPAW   =        T    paw PP                                                  
   EAUG   =  407.933                                                            
   DEXC   =    0.000                                                            
   RMAX   =    2.554    core radius for proj-oper                               
   RAUG   =    1.300    factor for augmentation sphere                          
   RDEP   =    2.590    radius for radial grids                                 
   RDEPT  =    2.117    core radius for aug-charge                              
                                                                                
   Atomic configuration                                                         
   13 entries                                                                   
     n  l   j            E        occ.                                          
     1  0  0.50    -35790.1377   2.0000                                         
     2  0  0.50     -5613.6201   2.0000                                         
     2  1  1.50     -5035.0101   6.0000                                         
     3  0  0.50     -1167.0767   2.0000                                         
     3  1  1.50      -980.9754   6.0000                                         
     3  2  2.50      -708.0703  10.0000                                         
     4  0  0.50      -220.2386   2.0000                                         
     4  1  1.50      -160.7596   6.0000                                         
     4  2  2.50       -74.2354  10.0000                                         
     5  0  0.50       -26.7287   2.0000                                         
     6  0  0.50        -2.0862   1.0000                                         
     5  1  1.50       -13.5159   6.0000                                         
     5  2  2.50        -0.4136   0.0000                                         
   Description                                                                  
     l       E           TYP  RCUT    TYP  RCUT                                 
     0    -26.7287425     23  1.900                                             
     0     -2.0862306     23  1.900                                             
     1    -13.5158719     23  2.500                                             
     1     -2.7211652     23  2.500                                             
     2     -0.4136171     23  2.500                                             
  local pseudopotential read in
  partial core-charges read in
  partial kinetic energy density read in
  atomic valenz-charges read in
  non local Contribution for L=           0  read in
    real space projection operators read in
  non local Contribution for L=           0  read in
    real space projection operators read in
  non local Contribution for L=           1  read in
    real space projection operators read in
  non local Contribution for L=           1  read in
    real space projection operators read in
  non local Contribution for L=           2  read in
    real space projection operators read in
    PAW grid and wavefunctions read in
 
   number of l-projection  operators is LMAX  =           5
   number of lm-projection operators is LMMAX =          13
 

 ----------------------------------------------------------------------------- 
|                                                                             |
|  ADVICE TO THIS USER RUNNING 'VASP/VAMP'   (HEAR YOUR MASTER'S VOICE ...):  |
|                                                                             |
|      You have a (more or less) 'large supercell' and for larger cells       |
|      it might be more efficient to use real space projection opertators     |
|      So try LREAL= Auto  in the INCAR   file.                               |
|      Mind:          For very  accurate calculation you might also keep the  |
|      reciprocal projection scheme          (i.e. LREAL=.FALSE.)             |
|                                                                             |
 ----------------------------------------------------------------------------- 

  PAW_PBE Pb_d 06Sep2000                :
 energy of atom  1       EATOM=-1661.6185
 kinetic energy error for atom=    0.0063 (will be added to EATOM!!)
  PAW_PBE I 08Apr2002                   :
 energy of atom  2       EATOM= -315.8678
 kinetic energy error for atom=    0.0010 (will be added to EATOM!!)
  PAW_PBE Cs_sv 08Apr2002               :
 energy of atom  3       EATOM= -555.6835
 kinetic energy error for atom=    0.0031 (will be added to EATOM!!)
 
 
 POSCAR: delta-Cesium_Lead_Iodide                
  positions in direct lattice
  velocities in cartesian coordinates
 exchange correlation table for  LEXCH =        8
   RHO(1)=    0.500       N(1)  =     2000
   RHO(2)=  100.500       N(2)  =     4000
 


--------------------------------------------------------------------------------------------------------


 ion  position               nearest neighbor table
   1  0.161  0.250  0.439-   9 3.10   7 3.24   7 3.24  14 3.28  14 3.28  13 3.37
   2  0.839  0.750  0.561-  10 3.10   8 3.24   8 3.24  13 3.28  13 3.28  14 3.37
   3  0.339  0.750  0.939-  11 3.10   5 3.24   5 3.24  16 3.28  16 3.28  15 3.37
   4  0.661  0.250  0.061-  12 3.10   6 3.24   6 3.24  15 3.28  15 3.28  16 3.37
   5  0.160  0.250  0.002-   3 3.24   3 3.24
   6  0.840  0.750  0.998-   4 3.24   4 3.24
   7  0.340  0.750  0.502-   1 3.24   1 3.24
   8  0.660  0.250  0.498-   2 3.24   2 3.24
   9  0.300  0.250  0.285-   1 3.10
  10  0.700  0.750  0.715-   2 3.10
  11  0.200  0.750  0.785-   3 3.10
  12  0.800  0.250  0.215-   4 3.10
  13  0.034  0.250  0.614-   2 3.28   2 3.28   1 3.37
  14  0.966  0.750  0.386-   1 3.28   1 3.28   2 3.37
  15  0.466  0.750  0.114-   4 3.28   4 3.28   3 3.37
  16  0.534  0.250  0.886-   3 3.28   3 3.28   4 3.37
  17  0.417  0.250  0.672-
  18  0.583  0.750  0.328-
  19  0.083  0.750  0.172-
  20  0.917  0.250  0.828-
 
  LATTYP: Found a simple orthorhombic cell.
 ALAT       =     4.7905001640
 B/A-ratio  =     2.1781024798
 C/A-ratio  =     3.7075459914
  
  Lattice vectors:
  
 A1 = (   0.0000000000,  -4.7905001640,   0.0000000000)
 A2 = ( -10.4342002869,   0.0000000000,   0.0000000000)
 A3 = (   0.0000000000,   0.0000000000, -17.7609996796)


Analysis of symmetry for initial positions (statically):
=====================================================================
 Subroutine PRICEL returns:
 Original cell was already a primitive cell.
 

 Routine SETGRP: Setting up the symmetry group for a 
 simple orthorhombic supercell.


 Subroutine GETGRP returns: Found  8 space group operations
 (whereof  2 operations were pure point group operations)
 out of a pool of  8 trial point group operations.


The static configuration has the point symmetry S_2 .
 The point group associated with its full space group is D_2h.


Analysis of symmetry for dynamics (positions and initial velocities):
=====================================================================
 Subroutine PRICEL returns:
 Original cell was already a primitive cell.
 

 Routine SETGRP: Setting up the symmetry group for a 
 simple orthorhombic supercell.


 Subroutine GETGRP returns: Found  8 space group operations
 (whereof  2 operations were pure point group operations)
 out of a pool of  8 trial point group operations.


The dynamic configuration has the point symmetry S_2 .
 The point group associated with its full space group is D_2h.


Analysis of structural, dynamic, and magnetic symmetry:
=====================================================================
 Subroutine PRICEL returns:
 Original cell was already a primitive cell.
 

 Routine SETGRP: Setting up the symmetry group for a 
 simple orthorhombic supercell.


 Subroutine GETGRP returns: Found  2 space group operations
 (whereof  2 operations were pure point group operations)
 out of a pool of  8 trial point group operations.


The (compounded) configuration has the point symmetry S_2 .


 Subroutine INISYM returns: Found  2 space group operations
 (whereof  2 operations are pure point group operations),
 and found     1 'primitive' translations

 
 
 KPOINTS: 0.060   2   3   1    4  0.060   72   12 
  k-points in reciprocal lattice
Space group operators:
 irot       det(A)        alpha          n_x          n_y          n_z        tau_x        tau_y        tau_z
    1     1.000000     0.000000     1.000000     0.000000     0.000000     0.000000     0.000000     0.000000
    2    -1.000000     0.000000     1.000000     0.000000     0.000000     0.000000     0.000000     0.000000

 ----------------------------------------------------------------------------- 
|                                                                             |
|           W    W    AA    RRRRR   N    N  II  N    N   GGGG   !!!           |
|           W    W   A  A   R    R  NN   N  II  NN   N  G    G  !!!           |
|           W    W  A    A  R    R  N N  N  II  N N  N  G       !!!           |
|           W WW W  AAAAAA  RRRRR   N  N N  II  N  N N  G  GGG   !            |
|           WW  WW  A    A  R   R   N   NN  II  N   NN  G    G                |
|           W    W  A    A  R    R  N    N  II  N    N   GGGG   !!!           |
|                                                                             |
|      Your generating k-point grid is not commensurate to the symmetry       |
|      of the lattice.  This can cause   slow convergence with respect        |
|      to k-points for HF type calculations                                   |
|      suggested SOLUTIONS:                                                   |
|       ) if not already the case, use automatic k-point generation           |
|       ) shift your grid to Gamma (G) (e.g. required for hex or fcc lattice) |
|                                                                             |
 ----------------------------------------------------------------------------- 

 
 Subroutine IBZKPT_HF returns following result:
 ==============================================
 
 Found     78 k-points in 1st BZ
 the following     78 k-points will be used (e.g. in the exchange kernel)
 Following reciprocal coordinates:   # in IRBZ
  0.000000  0.000000  0.000000    0.16666667   1 t-inv F
  0.500000  0.000000  0.000000    0.16666667   2 t-inv F
  0.000000  0.333333  0.000000    0.16666667   3 t-inv F
  0.500000  0.333333  0.000000    0.16666667   4 t-inv F
  0.000000  0.000000  0.000000    0.00000000   5 t-inv F
  0.125000  0.000000  0.000000    0.00000000   6 t-inv F
  0.250000  0.000000  0.000000    0.00000000   7 t-inv F
  0.375000  0.000000  0.000000    0.00000000   8 t-inv F
  0.500000  0.000000  0.000000    0.00000000   9 t-inv F
  0.500000  0.000000  0.000000    0.00000000  10 t-inv F
  0.500000  0.055556  0.000000    0.00000000  11 t-inv F
  0.500000  0.111111  0.000000    0.00000000  12 t-inv F
  0.500000  0.166667  0.000000    0.00000000  13 t-inv F
  0.500000  0.222222  0.000000    0.00000000  14 t-inv F
  0.500000  0.277778  0.000000    0.00000000  15 t-inv F
  0.500000  0.333333  0.000000    0.00000000  16 t-inv F
  0.500000  0.388889  0.000000    0.00000000  17 t-inv F
  0.500000  0.444444  0.000000    0.00000000  18 t-inv F
  0.500000  0.500000  0.000000    0.00000000  19 t-inv F
  0.500000  0.500000  0.000000    0.00000000  20 t-inv F
  0.375000  0.500000  0.000000    0.00000000  21 t-inv F
  0.250000  0.500000  0.000000    0.00000000  22 t-inv F
  0.125000  0.500000  0.000000    0.00000000  23 t-inv F
  0.000000  0.500000  0.000000    0.00000000  24 t-inv F
  0.000000  0.500000  0.000000    0.00000000  25 t-inv F
  0.000000  0.444444  0.000000    0.00000000  26 t-inv F
  0.000000  0.388889  0.000000    0.00000000  27 t-inv F
  0.000000  0.333333  0.000000    0.00000000  28 t-inv F
  0.000000  0.277778  0.000000    0.00000000  29 t-inv F
  0.000000  0.222222  0.000000    0.00000000  30 t-inv F
  0.000000  0.166667  0.000000    0.00000000  31 t-inv F
  0.000000  0.111111  0.000000    0.00000000  32 t-inv F
  0.000000  0.055556  0.000000    0.00000000  33 t-inv F
  0.000000  0.000000  0.000000    0.00000000  34 t-inv F
  0.000000  0.000000  0.000000    0.00000000  35 t-inv F
  0.000000  0.000000  0.250000    0.00000000  36 t-inv F
  0.000000  0.000000  0.500000    0.00000000  37 t-inv F
  0.000000  0.000000  0.500000    0.00000000  38 t-inv F
  0.125000  0.000000  0.500000    0.00000000  39 t-inv F
  0.250000  0.000000  0.500000    0.00000000  40 t-inv F
  0.375000  0.000000  0.500000    0.00000000  41 t-inv F
  0.500000  0.000000  0.500000    0.00000000  42 t-inv F
  0.500000  0.000000  0.500000    0.00000000  43 t-inv F
  0.500000  0.055556  0.500000    0.00000000  44 t-inv F
  0.500000  0.111111  0.500000    0.00000000  45 t-inv F
  0.500000  0.166667  0.500000    0.00000000  46 t-inv F
  0.500000  0.222222  0.500000    0.00000000  47 t-inv F
  0.500000  0.277778  0.500000    0.00000000  48 t-inv F
  0.500000  0.333333  0.500000    0.00000000  49 t-inv F
  0.500000  0.388889  0.500000    0.00000000  50 t-inv F
  0.500000  0.444444  0.500000    0.00000000  51 t-inv F
  0.500000  0.500000  0.500000    0.00000000  52 t-inv F
  0.500000  0.500000  0.500000    0.00000000  53 t-inv F
  0.375000  0.500000  0.500000    0.00000000  54 t-inv F
  0.250000  0.500000  0.500000    0.00000000  55 t-inv F
  0.125000  0.500000  0.500000    0.00000000  56 t-inv F
  0.000000  0.500000  0.500000    0.00000000  57 t-inv F
  0.000000  0.500000  0.500000    0.00000000  58 t-inv F
  0.000000  0.444444  0.500000    0.00000000  59 t-inv F
  0.000000  0.388889  0.500000    0.00000000  60 t-inv F
  0.000000  0.333333  0.500000    0.00000000  61 t-inv F
  0.000000  0.277778  0.500000    0.00000000  62 t-inv F
  0.000000  0.222222  0.500000    0.00000000  63 t-inv F
  0.000000  0.166667  0.500000    0.00000000  64 t-inv F
  0.000000  0.111111  0.500000    0.00000000  65 t-inv F
  0.000000  0.055556  0.500000    0.00000000  66 t-inv F
  0.000000  0.000000  0.500000    0.00000000  67 t-inv F
  0.500000  0.000000  0.000000    0.00000000  68 t-inv F
  0.500000  0.000000  0.250000    0.00000000  69 t-inv F
  0.500000  0.000000  0.500000    0.00000000  70 t-inv F
  0.000000  0.500000  0.000000    0.00000000  71 t-inv F
  0.000000  0.500000  0.250000    0.00000000  72 t-inv F
  0.000000  0.500000  0.500000    0.00000000  73 t-inv F
  0.500000  0.500000  0.000000    0.00000000  74 t-inv F
  0.500000  0.500000  0.250000    0.00000000  75 t-inv F
  0.500000  0.500000  0.500000    0.00000000  76 t-inv F
  0.000000 -0.333333  0.000000    0.16666667   3 t-inv F
 -0.500000 -0.333333  0.000000    0.16666667   4 t-inv F

 ----------------------------------------------------------------------------- 
|                                                                             |
|           W    W    AA    RRRRR   N    N  II  N    N   GGGG   !!!           |
|           W    W   A  A   R    R  NN   N  II  NN   N  G    G  !!!           |
|           W    W  A    A  R    R  N N  N  II  N N  N  G       !!!           |
|           W WW W  AAAAAA  RRRRR   N  N N  II  N  N N  G  GGG   !            |
|           WW  WW  A    A  R   R   N   NN  II  N   NN  G    G                |
|           W    W  A    A  R    R  N    N  II  N    N   GGGG   !!!           |
|                                                                             |
|      The number of bands has been changed from the values supplied          |
|      in the INCAR file. This is a result of running the parallel version.   |
|      The orbitals not found in the WAVECAR file will be initialized with    |
|      random numbers, which is usually adequate. For correlated              |
|      calculations, however, you should redo the groundstate calculation.    |
|      I found NBANDS    =      216  now  NBANDS  =     240                   |
|                                                                             |
 ----------------------------------------------------------------------------- 



--------------------------------------------------------------------------------------------------------




 Dimension of arrays:
   k-points           NKPTS =     76   k-points in BZ     NKDIM =     78   number of bands    NBANDS=    240
   number of dos      NEDOS =   2000   number of ions     NIONS =     20
   non local maximal  LDIM  =      6   non local SUM 2l+1 LMDIM =     18
   total plane-waves  NPLWV = 145152
   max r-space proj   IRMAX =      1   max aug-charges    IRDMAX=   9656
   dimension x,y,z NGX =    54 NGY =   28 NGZ =   96
   dimension x,y,z NGXF=   108 NGYF=   56 NGZF=  192
   support grid    NGXF=   108 NGYF=   56 NGZF=  192
   ions per type =               4  12   4
   NGX,Y,Z   is equivalent  to a cutoff of   8.60,  9.72,  8.99 a.u.
   NGXF,Y,Z  is equivalent  to a cutoff of  17.21, 19.43, 17.97 a.u.

 SYSTEM =  unknown system                          
 POSCAR =  delta-Cesium_Lead_Iodide                

 Startparameter for this run:
   NWRITE =      2    write-flag & timer
   PREC   = normal    normal or accurate (medium, high low for compatibility)
   ISTART =      1    job   : 0-new  1-cont  2-samecut
   ICHARG =     11    charge: 1-file 2-atom 10-const
   ISPIN  =      1    spin polarized calculation?
   LNONCOLLINEAR =      T non collinear calculations
   LSORBIT =      T    spin-orbit coupling
   INIWAV =      1    electr: 0-lowe 1-rand  2-diag
   LASPH  =      F    aspherical Exc in radial PAW
   METAGGA=      F    non-selfconsistent MetaGGA calc.

 Electronic Relaxation 1
   ENCUT  =  520.0 eV  33.07 Ry    5.75 a.u.  18.05  8.29 30.72*2*pi/ulx,y,z
   ENINI  =  520.0     initial cutoff
   ENAUG  =  407.9 eV  augmentation charge cutoff
   NELM   =     60;   NELMIN=  2; NELMDL=  0     # of ELM steps 
   EDIFF  = 0.1E-04   stopping-criterion for ELM
   LREAL  =      F    real-space projection
   NLSPLINE    = F    spline interpolate recip. space projectors
   LCOMPAT=      F    compatible to vasp.4.4
   GGA_COMPAT  = F    GGA compatible to vasp.4.4-vasp.4.6
   LMAXPAW     = -100 max onsite density
   LMAXMIX     =    4 max onsite mixed and CHGCAR
   VOSKOWN=      1    Vosko Wilk Nusair interpolation
   ROPT   =    0.00000   0.00000   0.00000
 Ionic relaxation
   EDIFFG = 0.1E-03   stopping-criterion for IOM
   NSW    =      0    number of steps for IOM
   NBLOCK =      1;   KBLOCK =      1    inner block; outer block 
   IBRION =     -1    ionic relax: 0-MD 1-quasi-New 2-CG
   NFREE  =      0    steps in history (QN), initial steepest desc. (CG)
   ISIF   =      0    stress and relaxation
   IWAVPR =     10    prediction:  0-non 1-charg 2-wave 3-comb
   ISYM   =      3    0-nonsym 1-usesym 2-fastsym
   LCORR  =      T    Harris-Foulkes like correction to forces

   POTIM  = 0.1000    time-step for ionic-motion
   TEIN   =    0.0    initial temperature
   TEBEG  =    0.0;   TEEND  =   0.0 temperature during run
   SMASS  =  -3.00    Nose mass-parameter (am)
   estimated Nose-frequenzy (Omega)   =  0.10E-29 period in steps =****** mass=  -0.249E-26a.u.
   SCALEE = 1.0000    scale energy and forces
   NPACO  =    256;   APACO  = 16.0  distance and # of slots for P.C.
   PSTRESS=    0.0 pullay stress

  Mass of Ions in am
   POMASS = 207.20126.90132.90
  Ionic Valenz
   ZVAL   =  14.00  7.00  9.00
  Atomic Wigner-Seitz radii
   RWIGS  =  -1.00 -1.00 -1.00
  virtual crystal weights 
   VCA    =   1.00  1.00  1.00
   NELECT =     176.0000    total number of electrons
   NUPDOWN=      -1.0000    fix difference up-down

 DOS related values:
   EMIN   =  10.00;   EMAX   =-10.00  energy-range for DOS
   EFERMI =   0.00
   ISMEAR =     1;   SIGMA  =   0.20  broadening in eV -4-tet -1-fermi 0-gaus

 Electronic relaxation 2 (details)
   IALGO  =     58    algorithm
   LDIAG  =      T    sub-space diagonalisation (order eigenvalues)
   LSUBROT=      F    optimize rotation matrix (better conditioning)
   TURBO    =      0    0=normal 1=particle mesh
   IRESTART =      0    0=no restart 2=restart with 2 vectors
   NREBOOT  =      0    no. of reboots
   NMIN     =      0    reboot dimension
   EREF     =   0.00    reference energy to select bands
   IMIX   =      4    mixing-type and parameters
     AMIX     =   0.40;   BMIX     =  1.00
     AMIX_MAG =   1.60;   BMIX_MAG =  1.00
     AMIN     =   0.10
     WC   =   100.;   INIMIX=   1;  MIXPRE=   1;  MAXMIX= -45

 Intra band minimization:
   WEIMIN = 0.0000     energy-eigenvalue tresh-hold
   EBREAK =  0.10E-07  absolut break condition
   DEPER  =   0.30     relativ break condition  

   TIME   =   0.40     timestep for ELM

  volume/ion in A,a.u.               =      44.39       299.55
  Fermi-wavevector in a.u.,A,eV,Ry     =   0.954575  1.803885 12.397803  0.911213
  Thomas-Fermi vector in A             =   2.083334
 
 Write flags
   LWAVE        =      T    write WAVECAR
   LDOWNSAMPLE  =      F    k-point downsampling of WAVECAR
   LCHARG       =      T    write CHGCAR
   LVTOT        =      F    write LOCPOT, total local potential
   LVHAR        =      F    write LOCPOT, Hartree potential only
   LELF         =      F    write electronic localiz. function (ELF)
   LORBIT       =     10    0 simple, 1 ext, 2 COOP (PROOUT), +10 PAW based schemes


 Dipole corrections
   LMONO  =      F    monopole corrections only (constant potential shift)
   LDIPOL =      F    correct potential (dipole corrections)
   IDIPOL =      0    1-x, 2-y, 3-z, 4-all directions 
   EPSILON=  1.0000000 bulk dielectric constant

 Exchange correlation treatment:
   GGA     =    --    GGA type
   LEXCH   =     8    internal setting for exchange type
   VOSKOWN=      1    Vosko Wilk Nusair interpolation
   EXXOEP  =     0    0=HF, 1=EXX-LHF (local Hartree Fock) 2=EXX OEP
   LHFCALC =     T    Hartree Fock is set to
   LSYMGRAD=     F    symmetrize gradient (conserves proper symmetry)
   PRECFOCK=normal    Normal, Fast or Accurate (Low or Medium for compatibility)
   LRHFCALC=     F    long range Hartree Fock
   LRSCOR  =     F    long range correlation only (use DFT for short range part)
   LTHOMAS =     F    Thomas Fermi screening in HF
   LMODELHF=     F    short range full HF, long range fraction AEXX
   ENCUT4O =  -1.0   cutoff for four orbital integrals eV
   LMAXFOCK=     4    L truncation for augmentation on plane wave grid
   LMAXFOCKAE=  -1    L truncation for all-electron charge restoration on plane wave grid
   NMAXFOCKAE=   1    number of basis functions for all-electron charge restoration
   LFOCKAEDFT=     F  apply the AE augmentation even for DFT
   NKREDX  =     1    reduce k-point grid by
   NKREDY  =     1    reduce k-point grid by
   NKREDZ  =     1    reduce k-point grid by
   SHIFTRED=     F    shift reduced grid of Gamma
   HFKIDENT=     F    idential grid for each k-point
   ODDONLY =     F    use only odd q-grid points
   EVENONLY=     F    use only even q-grid points
   HFALPHA =   -1.0000 decay constant for conv. correction
   MCALPHA =    0.0000 extent of test-charge in conv. correction in multipole expansion
   AEXX    =    0.2500 exact exchange contribution
   HFSCREEN=    0.2000 screening length (either q_TF or 0.3 A-1)
   HFSCREENC=   0.2000 screening length for correlation (either q_TF or 0.3 A-1)
   HFRCUT  =    0.0000 spherical cutoff for potential kernel
   ALDAX   =    0.7500 LDA exchange part
   AGGAX   =    0.7500 GGA exchange part
   ALDAC   =    1.0000 LDA correlation
   AGGAC   =    1.0000 GGA correlation
   ENCUTFOCK=  -1.0 apply spherical cutoff to Coloumb kernel
   NBANDSGWLOW=     1    first orbital included in HF term
   NBLOCK_FOCK=    64    blocking factor in FOCK_ACC
 Linear response parameters
   LEPSILON=     F    determine dielectric tensor
   LRPA    =     F    only Hartree local field effects (RPA)
   LNABLA  =     F    use nabla operator in PAW spheres
   LVEL    =     F    velocity operator in full k-point grid
   LINTERFAST=   F  fast interpolation
   KINTER  =     0    interpolate to denser k-point grid
   CSHIFT  =0.1000    complex shift for real part using Kramers Kronig
   OMEGAMAX=  -1.0    maximum frequency
   DEG_THRESHOLD= 0.2000000E-02 threshold for treating states as degnerate
   RTIME   =   -0.100 relaxation time in fs
  (WPLASMAI=    0.000 imaginary part of plasma frequency in eV, 0.658/RTIME)
   DFIELD  = 0.0000000 0.0000000 0.0000000 field for delta impulse in time
 
 Orbital magnetization related:
   ORBITALMAG=     F  switch on orbital magnetization
   LCHIMAG   =     F  perturbation theory with respect to B field
   DQ        =  0.001000  dq finite difference perturbation B field
   LLRAUG    =     F  two centre corrections for induced B field



--------------------------------------------------------------------------------------------------------


 Static calculation
 charge density and potential remain constant during run
 non collinear spin polarized calculation
 Conjugate gradient for all bands (Freysoldt, et al. PRB 79, 241103 (2009))
 preconditioned conjugated gradient   charged. constant during bandupdate  
 perform sub-space diagonalisation
    before iterative eigenvector-optimisation
 no mixing
 using additional bands          152
 reciprocal scheme for non local part
 use partial core corrections
 calculate Harris-corrections to forces 
   (improved forces if not selfconsistent)
 use gradient corrections 
 WARNING: stress and forces are not correct
  (second derivative of E(xc) not defined)
 use of overlap-Matrix (Vanderbilt PP)
 Methfessel and Paxton  Order N= 1 SIGMA  =   0.20


--------------------------------------------------------------------------------------------------------


  energy-cutoff  :      450.00
  volume of cell :      887.78
      direct lattice vectors                 reciprocal lattice vectors
    10.434200287  0.000000000  0.000000000     0.095838682  0.000000000  0.000000000
     0.000000000  4.790500164  0.000000000     0.000000000  0.208746470  0.000000000
     0.000000000  0.000000000 17.760999680     0.000000000  0.000000000  0.056303137

  length of vectors
    10.434200287  4.790500164 17.760999680     0.095838682  0.208746470  0.056303137


 
 old parameters found on file WAVECAR:
  energy-cutoff  :      450.00
  volume of cell :      887.78
      direct lattice vectors                 reciprocal lattice vectors
    10.434200287  0.000000000  0.000000000     0.095838682  0.000000000  0.000000000
     0.000000000  4.790500164  0.000000000     0.000000000  0.208746470  0.000000000
     0.000000000  0.000000000 17.760999680     0.000000000  0.000000000  0.056303137

  length of vectors

 
 k-points in units of 2pi/SCALE and weight: 0.060   2   3   1    4  0.060   72   12 
   0.00000000  0.00000000  0.00000000       0.167
   0.04791934  0.00000000  0.00000000       0.167
   0.00000000  0.06958216  0.00000000       0.333
   0.04791934  0.06958216  0.00000000       0.333
   0.00000000  0.00000000  0.00000000       0.000
   0.01197984  0.00000000  0.00000000       0.000
   0.02395967  0.00000000  0.00000000       0.000
   0.03593951  0.00000000  0.00000000       0.000
   0.04791934  0.00000000  0.00000000       0.000
   0.04791934  0.00000000  0.00000000       0.000
   0.04791934  0.01159703  0.00000000       0.000
   0.04791934  0.02319405  0.00000000       0.000
   0.04791934  0.03479108  0.00000000       0.000
   0.04791934  0.04638810  0.00000000       0.000
   0.04791934  0.05798513  0.00000000       0.000
   0.04791934  0.06958216  0.00000000       0.000
   0.04791934  0.08117918  0.00000000       0.000
   0.04791934  0.09277621  0.00000000       0.000
   0.04791934  0.10437324  0.00000000       0.000
   0.04791934  0.10437324  0.00000000       0.000
   0.03593951  0.10437324  0.00000000       0.000
   0.02395967  0.10437324  0.00000000       0.000
   0.01197984  0.10437324  0.00000000       0.000
   0.00000000  0.10437324  0.00000000       0.000
   0.00000000  0.10437324  0.00000000       0.000
   0.00000000  0.09277621  0.00000000       0.000
   0.00000000  0.08117918  0.00000000       0.000
   0.00000000  0.06958216  0.00000000       0.000
   0.00000000  0.05798513  0.00000000       0.000
   0.00000000  0.04638810  0.00000000       0.000
   0.00000000  0.03479108  0.00000000       0.000
   0.00000000  0.02319405  0.00000000       0.000
   0.00000000  0.01159703  0.00000000       0.000
   0.00000000  0.00000000  0.00000000       0.000
   0.00000000  0.00000000  0.00000000       0.000
   0.00000000  0.00000000  0.01407578       0.000
   0.00000000  0.00000000  0.02815157       0.000
   0.00000000  0.00000000  0.02815157       0.000
   0.01197984  0.00000000  0.02815157       0.000
   0.02395967  0.00000000  0.02815157       0.000
   0.03593951  0.00000000  0.02815157       0.000
   0.04791934  0.00000000  0.02815157       0.000
   0.04791934  0.00000000  0.02815157       0.000
   0.04791934  0.01159703  0.02815157       0.000
   0.04791934  0.02319405  0.02815157       0.000
   0.04791934  0.03479108  0.02815157       0.000
   0.04791934  0.04638810  0.02815157       0.000
   0.04791934  0.05798513  0.02815157       0.000
   0.04791934  0.06958216  0.02815157       0.000
   0.04791934  0.08117918  0.02815157       0.000
   0.04791934  0.09277621  0.02815157       0.000
   0.04791934  0.10437324  0.02815157       0.000
   0.04791934  0.10437324  0.02815157       0.000
   0.03593951  0.10437324  0.02815157       0.000
   0.02395967  0.10437324  0.02815157       0.000
   0.01197984  0.10437324  0.02815157       0.000
   0.00000000  0.10437324  0.02815157       0.000
   0.00000000  0.10437324  0.02815157       0.000
   0.00000000  0.09277621  0.02815157       0.000
   0.00000000  0.08117918  0.02815157       0.000
   0.00000000  0.06958216  0.02815157       0.000
   0.00000000  0.05798513  0.02815157       0.000
   0.00000000  0.04638810  0.02815157       0.000
   0.00000000  0.03479108  0.02815157       0.000
   0.00000000  0.02319405  0.02815157       0.000
   0.00000000  0.01159703  0.02815157       0.000
   0.00000000  0.00000000  0.02815157       0.000
   0.04791934  0.00000000  0.00000000       0.000
   0.04791934  0.00000000  0.01407578       0.000
   0.04791934  0.00000000  0.02815157       0.000
   0.00000000  0.10437324  0.00000000       0.000
   0.00000000  0.10437324  0.01407578       0.000
   0.00000000  0.10437324  0.02815157       0.000
   0.04791934  0.10437324  0.00000000       0.000
   0.04791934  0.10437324  0.01407578       0.000
   0.04791934  0.10437324  0.02815157       0.000
 
 k-points in reciprocal lattice and weights: 0.060   2   3   1    4  0.060   72   12 
   0.00000000  0.00000000  0.00000000       0.167
   0.50000000  0.00000000  0.00000000       0.167
   0.00000000  0.33333333  0.00000000       0.333
   0.50000000  0.33333333  0.00000000       0.333
   0.00000000  0.00000000  0.00000000       0.000
   0.12500000  0.00000000  0.00000000       0.000
   0.25000000  0.00000000  0.00000000       0.000
   0.37500000  0.00000000  0.00000000       0.000
   0.50000000  0.00000000  0.00000000       0.000
   0.50000000  0.00000000  0.00000000       0.000
   0.50000000  0.05555556  0.00000000       0.000
   0.50000000  0.11111111  0.00000000       0.000
   0.50000000  0.16666667  0.00000000       0.000
   0.50000000  0.22222222  0.00000000       0.000
   0.50000000  0.27777778  0.00000000       0.000
   0.50000000  0.33333333  0.00000000       0.000
   0.50000000  0.38888889  0.00000000       0.000
   0.50000000  0.44444444  0.00000000       0.000
   0.50000000  0.50000000  0.00000000       0.000
   0.50000000  0.50000000  0.00000000       0.000
   0.37500000  0.50000000  0.00000000       0.000
   0.25000000  0.50000000  0.00000000       0.000
   0.12500000  0.50000000  0.00000000       0.000
   0.00000000  0.50000000  0.00000000       0.000
   0.00000000  0.50000000  0.00000000       0.000
   0.00000000  0.44444444  0.00000000       0.000
   0.00000000  0.38888889  0.00000000       0.000
   0.00000000  0.33333333  0.00000000       0.000
   0.00000000  0.27777778  0.00000000       0.000
   0.00000000  0.22222222  0.00000000       0.000
   0.00000000  0.16666667  0.00000000       0.000
   0.00000000  0.11111111  0.00000000       0.000
   0.00000000  0.05555556  0.00000000       0.000
   0.00000000  0.00000000  0.00000000       0.000
   0.00000000  0.00000000  0.00000000       0.000
   0.00000000  0.00000000  0.25000000       0.000
   0.00000000  0.00000000  0.50000000       0.000
   0.00000000  0.00000000  0.50000000       0.000
   0.12500000  0.00000000  0.50000000       0.000
   0.25000000  0.00000000  0.50000000       0.000
   0.37500000  0.00000000  0.50000000       0.000
   0.50000000  0.00000000  0.50000000       0.000
   0.50000000  0.00000000  0.50000000       0.000
   0.50000000  0.05555556  0.50000000       0.000
   0.50000000  0.11111111  0.50000000       0.000
   0.50000000  0.16666667  0.50000000       0.000
   0.50000000  0.22222222  0.50000000       0.000
   0.50000000  0.27777778  0.50000000       0.000
   0.50000000  0.33333333  0.50000000       0.000
   0.50000000  0.38888889  0.50000000       0.000
   0.50000000  0.44444444  0.50000000       0.000
   0.50000000  0.50000000  0.50000000       0.000
   0.50000000  0.50000000  0.50000000       0.000
   0.37500000  0.50000000  0.50000000       0.000
   0.25000000  0.50000000  0.50000000       0.000
   0.12500000  0.50000000  0.50000000       0.000
   0.00000000  0.50000000  0.50000000       0.000
   0.00000000  0.50000000  0.50000000       0.000
   0.00000000  0.44444444  0.50000000       0.000
   0.00000000  0.38888889  0.50000000       0.000
   0.00000000  0.33333333  0.50000000       0.000
   0.00000000  0.27777778  0.50000000       0.000
   0.00000000  0.22222222  0.50000000       0.000
   0.00000000  0.16666667  0.50000000       0.000
   0.00000000  0.11111111  0.50000000       0.000
   0.00000000  0.05555556  0.50000000       0.000
   0.00000000  0.00000000  0.50000000       0.000
   0.50000000  0.00000000  0.00000000       0.000
   0.50000000  0.00000000  0.25000000       0.000
   0.50000000  0.00000000  0.50000000       0.000
   0.00000000  0.50000000  0.00000000       0.000
   0.00000000  0.50000000  0.25000000       0.000
   0.00000000  0.50000000  0.50000000       0.000
   0.50000000  0.50000000  0.00000000       0.000
   0.50000000  0.50000000  0.25000000       0.000
   0.50000000  0.50000000  0.50000000       0.000
 
 position of ions in fractional coordinates (direct lattice) 
   0.16093925  0.25000000  0.43901396
   0.83906069  0.74999998  0.56098601
   0.33906073  0.74999998  0.93901404
   0.66093927  0.25000000  0.06098604
   0.15991708  0.25000000  0.00198253
   0.84008297  0.74999998  0.99801747
   0.34008292  0.74999998  0.50198258
   0.65991708  0.25000000  0.49801747
   0.30023202  0.25000000  0.28497898
   0.69976796  0.74999998  0.71502104
   0.19976798  0.74999998  0.78497896
   0.80023204  0.25000000  0.21502102
   0.03388179  0.25000000  0.61372837
   0.96611821  0.74999998  0.38627166
   0.46611821  0.74999998  0.11372841
   0.53388179  0.25000000  0.88627163
   0.41713102  0.25000000  0.67193047
   0.58286898  0.74999998  0.32806953
   0.08286900  0.74999998  0.17193047
   0.91713102  0.25000000  0.82806953
 
 position of ions in cartesian coordinates  (Angst):
   1.67927241  1.19762504  7.79732680
   8.75492729  3.59287500  9.96367240
   3.53782761  3.59287500 16.67782808
   6.89637268  1.19762504  1.08317304
   1.66860682  1.19762504  0.03521166
   8.76559394  3.59287500 17.72578804
   3.54849332  3.59287500  8.91571244
   6.88570696  1.19762504  8.84528820
   3.13268102  1.19762504  5.06151162
   7.30151903  3.59287500 12.69948852
   2.08441913  3.59287500 13.94201100
   8.34978140  1.19762504  3.81898822
   0.35352936  1.19762504 10.90042934
  10.08067087  3.59287500  6.86057082
   4.86357072  3.59287500  2.01993021
   5.57062956  1.19762504 15.74107018
   4.35242856  1.19762504 11.93415683
   6.08177173  3.59287500  5.82684285
   0.86467176  3.59287500  3.05365699
   9.56952870  1.19762504 14.70734269
 
 Euler angles ALPHA=     0.0000000  BETA=     0.0000000

 transformation matrix from SAXIS to cartesian coordinates
 ---------------------------------------------------------
     1.0000000 m_x     0.0000000 m_y     0.0000000 m_z
     0.0000000 m_x     1.0000000 m_y     0.0000000 m_z
     0.0000000 m_x     0.0000000 m_y     1.0000000 m_z

 transformation matrix from cartesian coordinates to SAXIS
 ---------------------------------------------------------
     1.0000000 m_x     0.0000000 m_y     0.0000000 m_z
     0.0000000 m_x     1.0000000 m_y     0.0000000 m_z
     0.0000000 m_x     0.0000000 m_y     1.0000000 m_z




--------------------------------------------------------------------------------------------------------


 k-point  1 :   0.0000 0.0000 0.0000  plane waves:   38554
 k-point  2 :   0.5000 0.0000 0.0000  plane waves:   38480
 k-point  3 :   0.0000 0.3333 0.0000  plane waves:   38440
 k-point  4 :   0.5000 0.3333 0.0000  plane waves:   38568
 k-point  5 :   0.0000 0.0000 0.0000  plane waves:   38554
 k-point  6 :   0.1250 0.0000 0.0000  plane waves:   38524
 k-point  7 :   0.2500 0.0000 0.0000  plane waves:   38552
 k-point  8 :   0.3750 0.0000 0.0000  plane waves:   38512
 k-point  9 :   0.5000 0.0000 0.0000  plane waves:   38480
 k-point 10 :   0.5000 0.0000 0.0000  plane waves:   38480
 k-point 11 :   0.5000 0.0556 0.0000  plane waves:   38424
 k-point 12 :   0.5000 0.1111 0.0000  plane waves:   38512
 k-point 13 :   0.5000 0.1667 0.0000  plane waves:   38548
 k-point 14 :   0.5000 0.2222 0.0000  plane waves:   38496
 k-point 15 :   0.5000 0.2778 0.0000  plane waves:   38528
 k-point 16 :   0.5000 0.3333 0.0000  plane waves:   38568
 k-point 17 :   0.5000 0.3889 0.0000  plane waves:   38560
 k-point 18 :   0.5000 0.4444 0.0000  plane waves:   38528
 k-point 19 :   0.5000 0.5000 0.0000  plane waves:   38512
 k-point 20 :   0.5000 0.5000 0.0000  plane waves:   38512
 k-point 21 :   0.3750 0.5000 0.0000  plane waves:   38524
 k-point 22 :   0.2500 0.5000 0.0000  plane waves:   38424
 k-point 23 :   0.1250 0.5000 0.0000  plane waves:   38444
 k-point 24 :   0.0000 0.5000 0.0000  plane waves:   38488
 k-point 25 :   0.0000 0.5000 0.0000  plane waves:   38488
 k-point 26 :   0.0000 0.4444 0.0000  plane waves:   38508
 k-point 27 :   0.0000 0.3889 0.0000  plane waves:   38516
 k-point 28 :   0.0000 0.3333 0.0000  plane waves:   38440
 k-point 29 :   0.0000 0.2778 0.0000  plane waves:   38462
 k-point 30 :   0.0000 0.2222 0.0000  plane waves:   38402
 k-point 31 :   0.0000 0.1667 0.0000  plane waves:   38414
 k-point 32 :   0.0000 0.1111 0.0000  plane waves:   38466
 k-point 33 :   0.0000 0.0556 0.0000  plane waves:   38506
 k-point 34 :   0.0000 0.0000 0.0000  plane waves:   38554
 k-point 35 :   0.0000 0.0000 0.0000  plane waves:   38554
 k-point 36 :   0.0000 0.0000 0.2500  plane waves:   38482
 k-point 37 :   0.0000 0.0000 0.5000  plane waves:   38500
 k-point 38 :   0.0000 0.0000 0.5000  plane waves:   38500
 k-point 39 :   0.1250 0.0000 0.5000  plane waves:   38460
 k-point 40 :   0.2500 0.0000 0.5000  plane waves:   38476
 k-point 41 :   0.3750 0.0000 0.5000  plane waves:   38584
 k-point 42 :   0.5000 0.0000 0.5000  plane waves:   38560
 k-point 43 :   0.5000 0.0000 0.5000  plane waves:   38560
 k-point 44 :   0.5000 0.0556 0.5000  plane waves:   38568
 k-point 45 :   0.5000 0.1111 0.5000  plane waves:   38512
 k-point 46 :   0.5000 0.1667 0.5000  plane waves:   38560
 k-point 47 :   0.5000 0.2222 0.5000  plane waves:   38544
 k-point 48 :   0.5000 0.2778 0.5000  plane waves:   38480
 k-point 49 :   0.5000 0.3333 0.5000  plane waves:   38440
 k-point 50 :   0.5000 0.3889 0.5000  plane waves:   38488
 k-point 51 :   0.5000 0.4444 0.5000  plane waves:   38480
 k-point 52 :   0.5000 0.5000 0.5000  plane waves:   38512
 k-point 53 :   0.5000 0.5000 0.5000  plane waves:   38512
 k-point 54 :   0.3750 0.5000 0.5000  plane waves:   38496
 k-point 55 :   0.2500 0.5000 0.5000  plane waves:   38504
 k-point 56 :   0.1250 0.5000 0.5000  plane waves:   38552
 k-point 57 :   0.0000 0.5000 0.5000  plane waves:   38536
 k-point 58 :   0.0000 0.5000 0.5000  plane waves:   38536
 k-point 59 :   0.0000 0.4444 0.5000  plane waves:   38512
 k-point 60 :   0.0000 0.3889 0.5000  plane waves:   38468
 k-point 61 :   0.0000 0.3333 0.5000  plane waves:   38404
 k-point 62 :   0.0000 0.2778 0.5000  plane waves:   38416
 k-point 63 :   0.0000 0.2222 0.5000  plane waves:   38420
 k-point 64 :   0.0000 0.1667 0.5000  plane waves:   38416
 k-point 65 :   0.0000 0.1111 0.5000  plane waves:   38500
 k-point 66 :   0.0000 0.0556 0.5000  plane waves:   38488
 k-point 67 :   0.0000 0.0000 0.5000  plane waves:   38500
 k-point 68 :   0.5000 0.0000 0.0000  plane waves:   38480
 k-point 69 :   0.5000 0.0000 0.2500  plane waves:   38540
 k-point 70 :   0.5000 0.0000 0.5000  plane waves:   38560
 k-point 71 :   0.0000 0.5000 0.0000  plane waves:   38488
 k-point 72 :   0.0000 0.5000 0.2500  plane waves:   38552
 k-point 73 :   0.0000 0.5000 0.5000  plane waves:   38536
 k-point 74 :   0.5000 0.5000 0.0000  plane waves:   38512
 k-point 75 :   0.5000 0.5000 0.2500  plane waves:   38440
 k-point 76 :   0.5000 0.5000 0.5000  plane waves:   38512

 maximum and minimum number of plane-waves per node :     38584    38402

 maximum number of plane-waves:     38584
 maximum index in each direction: 
   IXMAX=   18   IYMAX=    8   IZMAX=   30
   IXMIN=  -18   IYMIN=   -8   IZMIN=  -31


 serial   3D FFT for wavefunctions
 parallel 3D FFT for charge:
    minimum data exchange during FFTs selected (reduces bandwidth)

 
 Radii for the augmentation spheres in the non-local exchange
 for species   1 augmentation radius   1.443 (default was   1.154)
       energy cutoff for augmentation   1800.0
 for species   2 augmentation radius   1.484 (default was   1.188)
       energy cutoff for augmentation   1800.0
 for species   3 augmentation radius   1.414 (default was   1.131)
       energy cutoff for augmentation   1800.0
 Maximum index for augmentation-charges in exchange         2249
  SETUP_FOCK is finished

 total amount of memory used by VASP MPI-rank0   854671. kBytes
=======================================================================

   base      :      30000. kBytes
   nonl-proj :     644474. kBytes
   fftplans  :       1865. kBytes
   grid      :      21331. kBytes
   one-center:       1244. kBytes
   HF        :        194. kBytes
   nonlr-proj:      10228. kBytes
   wavefun   :     145335. kBytes
 
     INWAV:  cpu time   41.6097: real time   41.7358
 initial charge density was supplied:
 number of electron     176.0000052 magnetization       0.0008768      0.0008013      0.0009880
 keeping initial charge density in first step


--------------------------------------------------------------------------------------------------------


 Maximum index for augmentation-charges          513 (set IRDMAX)


--------------------------------------------------------------------------------------------------------


 First call to EWALD:  gamma=   0.184
 Maximum number of real-space cells 3x 5x 2
 Maximum number of reciprocal cells 3x 2x 5

    FEWALD:  cpu time    0.0070: real time    0.0111


--------------------------------------- Iteration      1(   1)  ---------------------------------------


    POTLOK:  cpu time    0.5209: real time    0.6340
    SETDIJ:  cpu time    0.3339: real time    0.3833
    TRIAL :  cpu time 3326.5203: real time 3336.6319
    CORREC:  cpu time 3298.3336: real time 3310.6547
    --------------------------------------------
      LOOP:  cpu time 6625.8137: real time 6648.4263

 eigenvalue-minimisations  :     0
 total energy-change (2. order) :-0.7098674E+02  (-0.9421151E-06)
 number of electron     176.0000052 magnetization       0.0008768      0.0008013      0.0009880
 augmentation part      176.0000052 magnetization       0.0008768      0.0008013      0.0009880

 Free energy of the ion-electron system (eV)
  ---------------------------------------------------
  alpha Z        PSCENC =       296.55173223
  Ewald energy   TEWEN  =     -8963.34988360
  -Hartree energ DENC   =     -3443.26252271
  -exchange      EXHF   =       317.39980570
  -V(xc)+E(xc)   XCENC  =        13.96708078
  PAW double counting   =     16538.41720901   -16180.74220913
  entropy T*S    EENTRO =         0.02464664
  eigenvalues    EBANDS =     -1292.32922860
  atomic energy  EATOM  =     12642.33662683
  ---------------------------------------------------
  free energy    TOTEN  =       -70.98674270 eV

  energy without entropy =      -71.01138934  energy(sigma->0) =      -70.99495825
  exchange ACFDT corr.  =         0.00648529  see jH, gK, PRB 81, 115126


--------------------------------------------------------------------------------------------------------




--------------------------------------- Iteration      1(   2)  ---------------------------------------


    TRIAL :  cpu time 3318.9794: real time 3331.1979
    CORREC:  cpu time 3299.2044: real time 3311.4135
    EDDIAG:  cpu time 3299.2304: real time 3312.0354
    --------------------------------------------
      LOOP:  cpu time 9917.4213: real time 9954.6850

 eigenvalue-minimisations  :     0
 total energy-change (2. order) :-0.9432915E-06  (-0.6477213E-06)
 number of electron     176.0000052 magnetization       0.0008768      0.0008013      0.0009880
 augmentation part      176.0000052 magnetization       0.0008768      0.0008013      0.0009880

 Free energy of the ion-electron system (eV)
  ---------------------------------------------------
  alpha Z        PSCENC =       296.55173223
  Ewald energy   TEWEN  =     -8963.34988360
  -Hartree energ DENC   =     -3443.26252271
  -exchange      EXHF   =       317.40038366
  -V(xc)+E(xc)   XCENC  =        13.96708078
  PAW double counting   =     16538.41720901   -16180.74220913
  entropy T*S    EENTRO =         0.02464634
  eigenvalues    EBANDS =     -1292.33013630
  atomic energy  EATOM  =     12642.33662683
  ---------------------------------------------------
  free energy    TOTEN  =       -70.98674365 eV

  energy without entropy =      -71.01138999  energy(sigma->0) =      -70.99495909
  exchange ACFDT corr.  =         0.00648543  see jH, gK, PRB 81, 115126


--------------------------------------------------------------------------------------------------------


  average scaling for gradient   0.9901


 average (electrostatic) potential at core
  the test charge radii are     1.1541  1.1875  1.1312
  (the norm of the test charge is              1.0000)
       1 -88.9628       2 -88.9628       3 -88.9628       4 -88.9628       5 -89.0767
       6 -89.0767       7 -89.0767       8 -89.0767       9 -88.8558      10 -88.8559
      11 -88.8559      12 -88.8558      13 -89.2282      14 -89.2282      15 -89.2282
      16 -89.2282      17 -44.9625      18 -44.9625      19 -44.9625      20 -44.9625
 
 
 
 E-fermi :   1.6117     XC(G=0):  -6.6250     alpha+bet : -8.3336


 k-point     1 :       0.0000    0.0000    0.0000
  band No.  band energies     occupation 
      1     -20.6225      1.00000
      2     -20.6225      1.00000
      3     -20.6220      1.00000
      4     -20.6220      1.00000
      5     -20.6204      1.00000
      6     -20.6204      1.00000
      7     -20.6199      1.00000
      8     -20.6199      1.00000
      9     -17.8483      1.00000
     10     -17.8483      1.00000
     11     -17.8483      1.00000
     12     -17.8483      1.00000
     13     -17.8477      1.00000
     14     -17.8477      1.00000
     15     -17.8476      1.00000
     16     -17.8476      1.00000
     17     -17.8340      1.00000
     18     -17.8340      1.00000
     19     -17.8340      1.00000
     20     -17.8340      1.00000
     21     -17.8328      1.00000
     22     -17.8328      1.00000
     23     -17.8328      1.00000
     24     -17.8328      1.00000
     25     -15.1732      1.00000
     26     -15.1732      1.00000
     27     -15.1730      1.00000
     28     -15.1730      1.00000
     29     -15.1668      1.00000
     30     -15.1668      1.00000
     31     -15.1667      1.00000
     32     -15.1667      1.00000
     33     -15.1652      1.00000
     34     -15.1652      1.00000
     35     -15.1651      1.00000
     36     -15.1651      1.00000
     37     -15.1625      1.00000
     38     -15.1625      1.00000
     39     -15.1624      1.00000
     40     -15.1624      1.00000
     41     -15.1352      1.00000
     42     -15.1352      1.00000
     43     -15.1352      1.00000
     44     -15.1352      1.00000
     45     -15.1320      1.00000
     46     -15.1320      1.00000
     47     -15.1320      1.00000
     48     -15.1320      1.00000
     49     -11.5559      1.00000
     50     -11.5558      1.00000
     51     -11.5218      1.00000
     52     -11.5217      1.00000
     53     -11.2111      1.00000
     54     -11.2110      1.00000
     55     -11.0954      1.00000
     56     -11.0953      1.00000
     57     -11.0616      1.00000
     58     -11.0615      1.00000
     59     -11.0589      1.00000
     60     -11.0588      1.00000
     61     -11.0413      1.00000
     62     -11.0411      1.00000
     63     -10.9977      1.00000
     64     -10.9975      1.00000
     65     -10.7763      1.00000
     66     -10.7761      1.00000
     67     -10.7226      1.00000
     68     -10.7225      1.00000
     69     -10.7201      1.00000
     70     -10.7199      1.00000
     71     -10.6284      1.00000
     72     -10.6282      1.00000
     73      -7.5399      1.00000
     74      -7.5399      1.00000
     75      -7.5369      1.00000
     76      -7.5369      1.00000
     77      -7.4959      1.00000
     78      -7.4959      1.00000
     79      -7.4793      1.00000
     80      -7.4793      1.00000
     81      -6.1007      1.00000
     82      -6.1007      1.00000
     83      -6.0734      1.00000
     84      -6.0734      1.00000
     85      -6.0510      1.00000
     86      -6.0510      1.00000
     87      -5.9729      1.00000
     88      -5.9729      1.00000
     89      -5.9597      1.00000
     90      -5.9596      1.00000
     91      -5.9264      1.00000
     92      -5.9264      1.00000
     93      -5.9186      1.00000
     94      -5.9186      1.00000
     95      -5.9130      1.00000
     96      -5.9130      1.00000
     97      -5.9128      1.00000
     98      -5.9128      1.00000
     99      -5.8849      1.00000
    100      -5.8849      1.00000
    101      -5.8484      1.00000
    102      -5.8484      1.00000
    103      -5.7203      1.00000
    104      -5.7203      1.00000
    105      -1.8384      1.00000
    106      -1.8383      1.00000
    107      -1.5777      1.00000
    108      -1.5776      1.00000
    109      -1.1966      1.00000
    110      -1.1965      1.00000
    111      -1.1836      1.00000
    112      -1.1836      1.00000
    113      -1.0483      1.00000
    114      -1.0483      1.00000
    115      -1.0161      1.00000
    116      -1.0160      1.00000
    117      -0.8702      1.00000
    118      -0.8701      1.00000
    119      -0.6809      1.00000
    120      -0.6808      1.00000
    121      -0.5926      1.00000
    122      -0.5925      1.00000
    123      -0.5576      1.00000
    124      -0.5574      1.00000
    125      -0.5445      1.00000
    126      -0.5445      1.00000
    127      -0.4441      1.00000
    128      -0.4440      1.00000
    129      -0.3290      1.00000
    130      -0.3289      1.00000
    131      -0.2857      1.00000
    132      -0.2857      1.00000
    133      -0.2835      1.00000
    134      -0.2835      1.00000
    135      -0.0324      1.00000
    136      -0.0324      1.00000
    137       0.0128      1.00000
    138       0.0129      1.00000
    139       0.0338      1.00000
    140       0.0339      1.00000
    141       0.0767      1.00000
    142       0.0768      1.00000
    143       0.2205      1.00000
    144       0.2206      1.00000
    145       0.3051      1.00000
    146       0.3052      1.00000
    147       0.3055      1.00000
    148       0.3055      1.00000
    149       0.3422      1.00000
    150       0.3422      1.00000
    151       0.4250      1.00000
    152       0.4250      1.00000
    153       0.5238      1.00000
    154       0.5239      1.00000
    155       0.5319      1.00000
    156       0.5319      1.00000
    157       0.6651      1.00000
    158       0.6652      1.00000
    159       0.7068      1.00000
    160       0.7068      1.00000
    161       0.7300      1.00000
    162       0.7300      1.00000
    163       0.7949      1.00000
    164       0.7950      1.00000
    165       0.8441      1.00000
    166       0.8442      1.00000
    167       0.9285      1.00001
    168       0.9286      1.00001
    169       0.9568      1.00002
    170       0.9568      1.00002
    171       1.1113      1.00115
    172       1.1116      1.00116
    173       1.1701      1.00385
    174       1.1704      1.00388
    175       1.4803      0.94423
    176       1.4808      0.94286
    177       4.3114     -0.00000
    178       4.3114     -0.00000
    179       4.3672     -0.00000
    180       4.3672     -0.00000
    181       4.5001     -0.00000
    182       4.5001     -0.00000
    183       4.5725     -0.00000
    184       4.5725     -0.00000
    185       5.5492     -0.00000
    186       5.5493     -0.00000
    187       5.5893     -0.00000
    188       5.5893     -0.00000
    189       5.8710     -0.00000
    190       5.8710     -0.00000
    191       5.8732     -0.00000
    192       5.8732     -0.00000
    193       6.1238     -0.00000
    194       6.1238     -0.00000
    195       6.1833     -0.00000
    196       6.1833     -0.00000
    197       6.2146     -0.00000
    198       6.2146     -0.00000
    199       6.2230     -0.00000
    200       6.2230     -0.00000
    201       6.4324     -0.00000
    202       6.4324     -0.00000
    203       6.6181     -0.00000
    204       6.6181     -0.00000
    205       7.2386      0.00000
    206       7.2386      0.00000
    207       7.3385      0.00000
    208       7.3385      0.00000
    209       7.4716      0.00000
    210       7.4716      0.00000
    211       7.5400      0.00000
    212       7.5401      0.00000
    213       7.5893      0.00000
    214       7.5894      0.00000
    215       7.8562      0.00000
    216       7.8562      0.00000
    217       7.8717      0.00000
    218       7.8718      0.00000
    219       7.9148      0.00000
    220       7.9148      0.00000
    221       8.1604      0.00000
    222       8.1605      0.00000
    223       8.4821      0.00000
    224       8.4824      0.00000
    225       8.6448      0.00000
    226       8.6460      0.00000
    227       8.7030      0.00000
    228       8.7032      0.00000
    229       8.7827      0.00000
    230       8.7833      0.00000
    231       8.9589      0.00000
    232       9.0311      0.00000
    233       9.0499      0.00000
    234       9.0515      0.00000
    235       9.0549      0.00000
    236       9.1291      0.00000
    237       9.1525      0.00000
    238       9.2140      0.00000
    239       9.2351      0.00000
    240       9.2748      0.00000

 k-point     2 :       0.5000    0.0000    0.0000
  band No.  band energies     occupation 
      1     -20.6214      1.00000
      2     -20.6214      1.00000
      3     -20.6214      1.00000
      4     -20.6214      1.00000
      5     -20.6209      1.00000
      6     -20.6209      1.00000
      7     -20.6209      1.00000
      8     -20.6209      1.00000
      9     -17.8483      1.00000
     10     -17.8483      1.00000
     11     -17.8483      1.00000
     12     -17.8483      1.00000
     13     -17.8477      1.00000
     14     -17.8477      1.00000
     15     -17.8477      1.00000
     16     -17.8477      1.00000
     17     -17.8340      1.00000
     18     -17.8340      1.00000
     19     -17.8340      1.00000
     20     -17.8340      1.00000
     21     -17.8328      1.00000
     22     -17.8328      1.00000
     23     -17.8328      1.00000
     24     -17.8328      1.00000
     25     -15.1732      1.00000
     26     -15.1732      1.00000
     27     -15.1732      1.00000
     28     -15.1732      1.00000
     29     -15.1667      1.00000
     30     -15.1667      1.00000
     31     -15.1667      1.00000
     32     -15.1667      1.00000
     33     -15.1652      1.00000
     34     -15.1652      1.00000
     35     -15.1652      1.00000
     36     -15.1652      1.00000
     37     -15.1623      1.00000
     38     -15.1623      1.00000
     39     -15.1623      1.00000
     40     -15.1623      1.00000
     41     -15.1352      1.00000
     42     -15.1352      1.00000
     43     -15.1352      1.00000
     44     -15.1352      1.00000
     45     -15.1320      1.00000
     46     -15.1320      1.00000
     47     -15.1320      1.00000
     48     -15.1320      1.00000
     49     -11.4970      1.00000
     50     -11.4970      1.00000
     51     -11.4969      1.00000
     52     -11.4969      1.00000
     53     -11.2642      1.00000
     54     -11.2642      1.00000
     55     -11.2641      1.00000
     56     -11.2641      1.00000
     57     -11.1283      1.00000
     58     -11.1283      1.00000
     59     -11.1281      1.00000
     60     -11.1281      1.00000
     61     -10.8775      1.00000
     62     -10.8775      1.00000
     63     -10.8773      1.00000
     64     -10.8773      1.00000
     65     -10.7383      1.00000
     66     -10.7383      1.00000
     67     -10.7381      1.00000
     68     -10.7381      1.00000
     69     -10.6833      1.00000
     70     -10.6833      1.00000
     71     -10.6832      1.00000
     72     -10.6831      1.00000
     73      -7.5233      1.00000
     74      -7.5233      1.00000
     75      -7.5233      1.00000
     76      -7.5233      1.00000
     77      -7.5104      1.00000
     78      -7.5104      1.00000
     79      -7.5104      1.00000
     80      -7.5104      1.00000
     81      -6.1424      1.00000
     82      -6.1424      1.00000
     83      -6.1423      1.00000
     84      -6.1423      1.00000
     85      -6.0655      1.00000
     86      -6.0655      1.00000
     87      -6.0655      1.00000
     88      -6.0654      1.00000
     89      -5.9371      1.00000
     90      -5.9371      1.00000
     91      -5.9370      1.00000
     92      -5.9370      1.00000
     93      -5.9241      1.00000
     94      -5.9241      1.00000
     95      -5.9241      1.00000
     96      -5.9241      1.00000
     97      -5.8591      1.00000
     98      -5.8591      1.00000
     99      -5.8591      1.00000
    100      -5.8591      1.00000
    101      -5.7124      1.00000
    102      -5.7124      1.00000
    103      -5.7123      1.00000
    104      -5.7123      1.00000
    105      -1.6594      1.00000
    106      -1.6594      1.00000
    107      -1.6594      1.00000
    108      -1.6594      1.00000
    109      -1.1292      1.00000
    110      -1.1292      1.00000
    111      -1.1291      1.00000
    112      -1.1291      1.00000
    113      -1.0027      1.00000
    114      -1.0027      1.00000
    115      -1.0027      1.00000
    116      -1.0027      1.00000
    117      -0.8992      1.00000
    118      -0.8992      1.00000
    119      -0.8992      1.00000
    120      -0.8992      1.00000
    121      -0.6480      1.00000
    122      -0.6480      1.00000
    123      -0.6480      1.00000
    124      -0.6479      1.00000
    125      -0.4321      1.00000
    126      -0.4321      1.00000
    127      -0.4320      1.00000
    128      -0.4320      1.00000
    129      -0.2990      1.00000
    130      -0.2990      1.00000
    131      -0.2989      1.00000
    132      -0.2989      1.00000
    133      -0.1465      1.00000
    134      -0.1464      1.00000
    135      -0.1464      1.00000
    136      -0.1464      1.00000
    137      -0.0685      1.00000
    138      -0.0685      1.00000
    139      -0.0685      1.00000
    140      -0.0685      1.00000
    141       0.0651      1.00000
    142       0.0651      1.00000
    143       0.0652      1.00000
    144       0.0652      1.00000
    145       0.2724      1.00000
    146       0.2724      1.00000
    147       0.2725      1.00000
    148       0.2725      1.00000
    149       0.4044      1.00000
    150       0.4044      1.00000
    151       0.4044      1.00000
    152       0.4044      1.00000
    153       0.5228      1.00000
    154       0.5228      1.00000
    155       0.5229      1.00000
    156       0.5229      1.00000
    157       0.7363      1.00000
    158       0.7363      1.00000
    159       0.7364      1.00000
    160       0.7364      1.00000
    161       0.8198      1.00000
    162       0.8198      1.00000
    163       0.8198      1.00000
    164       0.8198      1.00000
    165       0.9251      1.00001
    166       0.9251      1.00001
    167       0.9252      1.00001
    168       0.9252      1.00001
    169       0.9635      1.00002
    170       0.9635      1.00002
    171       0.9636      1.00002
    172       0.9636      1.00002
    173       1.4746      0.95486
    174       1.4746      0.95485
    175       1.4751      0.95366
    176       1.4751      0.95365
    177       4.1952     -0.00000
    178       4.1952     -0.00000
    179       4.1952     -0.00000
    180       4.1952     -0.00000
    181       4.5497     -0.00000
    182       4.5497     -0.00000
    183       4.5497     -0.00000
    184       4.5497     -0.00000
    185       5.5254     -0.00000
    186       5.5254     -0.00000
    187       5.5255     -0.00000
    188       5.5255     -0.00000
    189       5.8044     -0.00000
    190       5.8044     -0.00000
    191       5.8045     -0.00000
    192       5.8045     -0.00000
    193       6.0967     -0.00000
    194       6.0967     -0.00000
    195       6.0967     -0.00000
    196       6.0967     -0.00000
    197       6.2698     -0.00000
    198       6.2698     -0.00000
    199       6.2698     -0.00000
    200       6.2698     -0.00000
    201       6.9444     -0.00000
    202       6.9444     -0.00000
    203       6.9444     -0.00000
    204       6.9444     -0.00000
    205       7.1771      0.00000
    206       7.1771      0.00000
    207       7.1771      0.00000
    208       7.1771      0.00000
    209       7.5803      0.00000
    210       7.5803      0.00000
    211       7.5804      0.00000
    212       7.5804      0.00000
    213       7.7762      0.00000
    214       7.7762      0.00000
    215       7.7762      0.00000
    216       7.7762      0.00000
    217       8.0587      0.00000
    218       8.0587      0.00000
    219       8.0587      0.00000
    220       8.0587      0.00000
    221       8.2895      0.00000
    222       8.2895      0.00000
    223       8.2896      0.00000
    224       8.2896      0.00000
    225       8.5697      0.00000
    226       8.5697      0.00000
    227       8.5699      0.00000
    228       8.5703      0.00000
    229       8.8478      0.00000
    230       8.8479      0.00000
    231       8.8546      0.00000
    232       8.8938      0.00000
    233       8.9820      0.00000
    234       8.9826      0.00000
    235       9.0027      0.00000
    236       9.0070      0.00000
    237       9.0964      0.00000
    238       9.1021      0.00000
    239       9.2226      0.00000
    240       9.2803      0.00000

 k-point     3 :       0.0000    0.3333    0.0000
  band No.  band energies     occupation 
      1     -20.6107      1.00000
      2     -20.6107      1.00000
      3     -20.6105      1.00000
      4     -20.6105      1.00000
      5     -20.6092      1.00000
      6     -20.6092      1.00000
      7     -20.6090      1.00000
      8     -20.6089      1.00000
      9     -17.8512      1.00000
     10     -17.8512      1.00000
     11     -17.8512      1.00000
     12     -17.8512      1.00000
     13     -17.8507      1.00000
     14     -17.8507      1.00000
     15     -17.8507      1.00000
     16     -17.8507      1.00000
     17     -17.8318      1.00000
     18     -17.8318      1.00000
     19     -17.8317      1.00000
     20     -17.8317      1.00000
     21     -17.8311      1.00000
     22     -17.8311      1.00000
     23     -17.8310      1.00000
     24     -17.8310      1.00000
     25     -15.1819      1.00000
     26     -15.1819      1.00000
     27     -15.1818      1.00000
     28     -15.1818      1.00000
     29     -15.1807      1.00000
     30     -15.1807      1.00000
     31     -15.1807      1.00000
     32     -15.1807      1.00000
     33     -15.1632      1.00000
     34     -15.1632      1.00000
     35     -15.1632      1.00000
     36     -15.1632      1.00000
     37     -15.1586      1.00000
     38     -15.1586      1.00000
     39     -15.1585      1.00000
     40     -15.1585      1.00000
     41     -15.1323      1.00000
     42     -15.1323      1.00000
     43     -15.1323      1.00000
     44     -15.1323      1.00000
     45     -15.1312      1.00000
     46     -15.1312      1.00000
     47     -15.1311      1.00000
     48     -15.1311      1.00000
     49     -11.2830      1.00000
     50     -11.2828      1.00000
     51     -11.2630      1.00000
     52     -11.2629      1.00000
     53     -11.0648      1.00000
     54     -11.0647      1.00000
     55     -11.0243      1.00000
     56     -11.0242      1.00000
     57     -10.9070      1.00000
     58     -10.9069      1.00000
     59     -10.9016      1.00000
     60     -10.9015      1.00000
     61     -10.8978      1.00000
     62     -10.8977      1.00000
     63     -10.8658      1.00000
     64     -10.8657      1.00000
     65     -10.7452      1.00000
     66     -10.7451      1.00000
     67     -10.7395      1.00000
     68     -10.7394      1.00000
     69     -10.7326      1.00000
     70     -10.7324      1.00000
     71     -10.7152      1.00000
     72     -10.7150      1.00000
     73      -7.5864      1.00000
     74      -7.5864      1.00000
     75      -7.5794      1.00000
     76      -7.5794      1.00000
     77      -7.5535      1.00000
     78      -7.5535      1.00000
     79      -7.5436      1.00000
     80      -7.5436      1.00000
     81      -6.3600      1.00000
     82      -6.3599      1.00000
     83      -6.3308      1.00000
     84      -6.3308      1.00000
     85      -6.2543      1.00000
     86      -6.2542      1.00000
     87      -6.2109      1.00000
     88      -6.2108      1.00000
     89      -6.0784      1.00000
     90      -6.0784      1.00000
     91      -6.0734      1.00000
     92      -6.0733      1.00000
     93      -6.0180      1.00000
     94      -6.0179      1.00000
     95      -5.9935      1.00000
     96      -5.9934      1.00000
     97      -5.9692      1.00000
     98      -5.9692      1.00000
     99      -5.9539      1.00000
    100      -5.9539      1.00000
    101      -5.9469      1.00000
    102      -5.9469      1.00000
    103      -5.9201      1.00000
[...]
 l=   2
     0.0000000    -0.0000020     0.0000000     0.0000008    -0.0000045
    -0.0000020     0.0000000     0.0000017     0.0000002    -0.0000001
     0.0000000     0.0000017     0.0000000     0.0000060     0.0000000
     0.0000008     0.0000002     0.0000060     0.0000000     0.0000001
    -0.0000045    -0.0000001     0.0000000     0.0000001     0.0000000
 l=   3
     0.0000000     0.0000000     0.0000000     0.0000000     0.0000000     0.0000000     0.0000000
     0.0000000     0.0000000     0.0000000     0.0000000     0.0000000     0.0000000     0.0000000
     0.0000000     0.0000000     0.0000000     0.0000000     0.0000000     0.0000000     0.0000000
     0.0000000     0.0000000     0.0000000     0.0000000     0.0000000     0.0000000     0.0000000
     0.0000000     0.0000000     0.0000000     0.0000000     0.0000000     0.0000000     0.0000000
     0.0000000     0.0000000     0.0000000     0.0000000     0.0000000     0.0000000     0.0000000
     0.0000000     0.0000000     0.0000000     0.0000000     0.0000000     0.0000000     0.0000000

 Ion:   10  E_soc:     -0.2556315
 l=   1
     0.0000000    -0.0431364    -0.0407008
    -0.0431364     0.0000000    -0.0439807
    -0.0407008    -0.0439807     0.0000000
 l=   2
     0.0000000    -0.0000020     0.0000000     0.0000008    -0.0000045
    -0.0000020     0.0000000     0.0000017     0.0000002    -0.0000001
     0.0000000     0.0000017     0.0000000     0.0000060     0.0000000
     0.0000008     0.0000002     0.0000060     0.0000000     0.0000001
    -0.0000045    -0.0000001     0.0000000     0.0000001     0.0000000
 l=   3
     0.0000000     0.0000000     0.0000000     0.0000000     0.0000000     0.0000000     0.0000000
     0.0000000     0.0000000     0.0000000     0.0000000     0.0000000     0.0000000     0.0000000
     0.0000000     0.0000000     0.0000000     0.0000000     0.0000000     0.0000000     0.0000000
     0.0000000     0.0000000     0.0000000     0.0000000     0.0000000     0.0000000     0.0000000
     0.0000000     0.0000000     0.0000000     0.0000000     0.0000000     0.0000000     0.0000000
     0.0000000     0.0000000     0.0000000     0.0000000     0.0000000     0.0000000     0.0000000
     0.0000000     0.0000000     0.0000000     0.0000000     0.0000000     0.0000000     0.0000000

 Ion:   11  E_soc:     -0.2556319
 l=   1
     0.0000000    -0.0431365    -0.0407008
    -0.0431365     0.0000000    -0.0439808
    -0.0407008    -0.0439808     0.0000000
 l=   2
     0.0000000    -0.0000020     0.0000000     0.0000008    -0.0000045
    -0.0000020     0.0000000     0.0000017     0.0000002    -0.0000001
     0.0000000     0.0000017     0.0000000     0.0000060     0.0000000
     0.0000008     0.0000002     0.0000060     0.0000000     0.0000001
    -0.0000045    -0.0000001     0.0000000     0.0000001     0.0000000
 l=   3
     0.0000000     0.0000000     0.0000000     0.0000000     0.0000000     0.0000000     0.0000000
     0.0000000     0.0000000     0.0000000     0.0000000     0.0000000     0.0000000     0.0000000
     0.0000000     0.0000000     0.0000000     0.0000000     0.0000000     0.0000000     0.0000000
     0.0000000     0.0000000     0.0000000     0.0000000     0.0000000     0.0000000     0.0000000
     0.0000000     0.0000000     0.0000000     0.0000000     0.0000000     0.0000000     0.0000000
     0.0000000     0.0000000     0.0000000     0.0000000     0.0000000     0.0000000     0.0000000
     0.0000000     0.0000000     0.0000000     0.0000000     0.0000000     0.0000000     0.0000000

 Ion:   12  E_soc:     -0.2556320
 l=   1
     0.0000000    -0.0431365    -0.0407009
    -0.0431365     0.0000000    -0.0439808
    -0.0407009    -0.0439808     0.0000000
 l=   2
     0.0000000    -0.0000020     0.0000000     0.0000008    -0.0000045
    -0.0000020     0.0000000     0.0000017     0.0000002    -0.0000001
     0.0000000     0.0000017     0.0000000     0.0000060     0.0000000
     0.0000008     0.0000002     0.0000060     0.0000000     0.0000001
    -0.0000045    -0.0000001     0.0000000     0.0000001     0.0000000
 l=   3
     0.0000000     0.0000000     0.0000000     0.0000000     0.0000000     0.0000000     0.0000000
     0.0000000     0.0000000     0.0000000     0.0000000     0.0000000     0.0000000     0.0000000
     0.0000000     0.0000000     0.0000000     0.0000000     0.0000000     0.0000000     0.0000000
     0.0000000     0.0000000     0.0000000     0.0000000     0.0000000     0.0000000     0.0000000
     0.0000000     0.0000000     0.0000000     0.0000000     0.0000000     0.0000000     0.0000000
     0.0000000     0.0000000     0.0000000     0.0000000     0.0000000     0.0000000     0.0000000
     0.0000000     0.0000000     0.0000000     0.0000000     0.0000000     0.0000000     0.0000000

 Ion:   13  E_soc:     -0.2574408
 l=   1
     0.0000000    -0.0430174    -0.0425582
    -0.0430174     0.0000000    -0.0431591
    -0.0425582    -0.0431591     0.0000000
 l=   2
     0.0000000     0.0000007     0.0000000     0.0000057     0.0000028
     0.0000007     0.0000000     0.0000021     0.0000001    -0.0000020
     0.0000000     0.0000021     0.0000000     0.0000082     0.0000000
     0.0000057     0.0000001     0.0000082     0.0000000    -0.0000033
     0.0000028    -0.0000020     0.0000000    -0.0000033     0.0000000
 l=   3
     0.0000000     0.0000000     0.0000000     0.0000000     0.0000000     0.0000000     0.0000000
     0.0000000     0.0000000     0.0000000     0.0000000     0.0000000     0.0000000     0.0000000
     0.0000000     0.0000000     0.0000000     0.0000000     0.0000000     0.0000000     0.0000000
     0.0000000     0.0000000     0.0000000     0.0000000     0.0000000     0.0000000     0.0000000
     0.0000000     0.0000000     0.0000000     0.0000000     0.0000000     0.0000000     0.0000000
     0.0000000     0.0000000     0.0000000     0.0000000     0.0000000     0.0000000     0.0000000
     0.0000000     0.0000000     0.0000000     0.0000000     0.0000000     0.0000000     0.0000000

 Ion:   14  E_soc:     -0.2574409
 l=   1
     0.0000000    -0.0430174    -0.0425582
    -0.0430174     0.0000000    -0.0431591
    -0.0425582    -0.0431591     0.0000000
 l=   2
     0.0000000     0.0000007     0.0000000     0.0000057     0.0000028
     0.0000007     0.0000000     0.0000021     0.0000001    -0.0000020
     0.0000000     0.0000021     0.0000000     0.0000082     0.0000000
     0.0000057     0.0000001     0.0000082     0.0000000    -0.0000033
     0.0000028    -0.0000020     0.0000000    -0.0000033     0.0000000
 l=   3
     0.0000000     0.0000000     0.0000000     0.0000000     0.0000000     0.0000000     0.0000000
     0.0000000     0.0000000     0.0000000     0.0000000     0.0000000     0.0000000     0.0000000
     0.0000000     0.0000000     0.0000000     0.0000000     0.0000000     0.0000000     0.0000000
     0.0000000     0.0000000     0.0000000     0.0000000     0.0000000     0.0000000     0.0000000
     0.0000000     0.0000000     0.0000000     0.0000000     0.0000000     0.0000000     0.0000000
     0.0000000     0.0000000     0.0000000     0.0000000     0.0000000     0.0000000     0.0000000
     0.0000000     0.0000000     0.0000000     0.0000000     0.0000000     0.0000000     0.0000000

 Ion:   15  E_soc:     -0.2574410
 l=   1
     0.0000000    -0.0430174    -0.0425582
    -0.0430174     0.0000000    -0.0431591
    -0.0425582    -0.0431591     0.0000000
 l=   2
     0.0000000     0.0000007     0.0000000     0.0000057     0.0000028
     0.0000007     0.0000000     0.0000021     0.0000001    -0.0000020
     0.0000000     0.0000021     0.0000000     0.0000082     0.0000000
     0.0000057     0.0000001     0.0000082     0.0000000    -0.0000033
     0.0000028    -0.0000020     0.0000000    -0.0000033     0.0000000
 l=   3
     0.0000000     0.0000000     0.0000000     0.0000000     0.0000000     0.0000000     0.0000000
     0.0000000     0.0000000     0.0000000     0.0000000     0.0000000     0.0000000     0.0000000
     0.0000000     0.0000000     0.0000000     0.0000000     0.0000000     0.0000000     0.0000000
     0.0000000     0.0000000     0.0000000     0.0000000     0.0000000     0.0000000     0.0000000
     0.0000000     0.0000000     0.0000000     0.0000000     0.0000000     0.0000000     0.0000000
     0.0000000     0.0000000     0.0000000     0.0000000     0.0000000     0.0000000     0.0000000
     0.0000000     0.0000000     0.0000000     0.0000000     0.0000000     0.0000000     0.0000000

 Ion:   16  E_soc:     -0.2574409
 l=   1
     0.0000000    -0.0430174    -0.0425582
    -0.0430174     0.0000000    -0.0431591
    -0.0425582    -0.0431591     0.0000000
 l=   2
     0.0000000     0.0000007     0.0000000     0.0000057     0.0000028
     0.0000007     0.0000000     0.0000021     0.0000001    -0.0000020
     0.0000000     0.0000021     0.0000000     0.0000082     0.0000000
     0.0000057     0.0000001     0.0000082     0.0000000    -0.0000033
     0.0000028    -0.0000020     0.0000000    -0.0000033     0.0000000
 l=   3
     0.0000000     0.0000000     0.0000000     0.0000000     0.0000000     0.0000000     0.0000000
     0.0000000     0.0000000     0.0000000     0.0000000     0.0000000     0.0000000     0.0000000
     0.0000000     0.0000000     0.0000000     0.0000000     0.0000000     0.0000000     0.0000000
     0.0000000     0.0000000     0.0000000     0.0000000     0.0000000     0.0000000     0.0000000
     0.0000000     0.0000000     0.0000000     0.0000000     0.0000000     0.0000000     0.0000000
     0.0000000     0.0000000     0.0000000     0.0000000     0.0000000     0.0000000     0.0000000
     0.0000000     0.0000000     0.0000000     0.0000000     0.0000000     0.0000000     0.0000000

 Ion:   17  E_soc:     -0.2771028
 l=   1
     0.0000000    -0.0461500    -0.0462055
    -0.0461500     0.0000000    -0.0460329
    -0.0462055    -0.0460329     0.0000000
 l=   2
     0.0000000    -0.0000170     0.0000000    -0.0000140    -0.0000466
    -0.0000170     0.0000000    -0.0000327    -0.0000125    -0.0000074
     0.0000000    -0.0000327     0.0000000    -0.0000253     0.0000000
    -0.0000140    -0.0000125    -0.0000253     0.0000000    -0.0000075
    -0.0000466    -0.0000074     0.0000000    -0.0000075     0.0000000
 l=   3
     0.0000000     0.0000000     0.0000000     0.0000000     0.0000000     0.0000000     0.0000000
     0.0000000     0.0000000     0.0000000     0.0000000     0.0000000     0.0000000     0.0000000
     0.0000000     0.0000000     0.0000000     0.0000000     0.0000000     0.0000000     0.0000000
     0.0000000     0.0000000     0.0000000     0.0000000     0.0000000     0.0000000     0.0000000
     0.0000000     0.0000000     0.0000000     0.0000000     0.0000000     0.0000000     0.0000000
     0.0000000     0.0000000     0.0000000     0.0000000     0.0000000     0.0000000     0.0000000
     0.0000000     0.0000000     0.0000000     0.0000000     0.0000000     0.0000000     0.0000000

 Ion:   18  E_soc:     -0.2771028
 l=   1
     0.0000000    -0.0461500    -0.0462055
    -0.0461500     0.0000000    -0.0460329
    -0.0462055    -0.0460329     0.0000000
 l=   2
     0.0000000    -0.0000170     0.0000000    -0.0000140    -0.0000466
    -0.0000170     0.0000000    -0.0000327    -0.0000125    -0.0000074
     0.0000000    -0.0000327     0.0000000    -0.0000253     0.0000000
    -0.0000140    -0.0000125    -0.0000253     0.0000000    -0.0000075
    -0.0000466    -0.0000074     0.0000000    -0.0000075     0.0000000
 l=   3
     0.0000000     0.0000000     0.0000000     0.0000000     0.0000000     0.0000000     0.0000000
     0.0000000     0.0000000     0.0000000     0.0000000     0.0000000     0.0000000     0.0000000
     0.0000000     0.0000000     0.0000000     0.0000000     0.0000000     0.0000000     0.0000000
     0.0000000     0.0000000     0.0000000     0.0000000     0.0000000     0.0000000     0.0000000
     0.0000000     0.0000000     0.0000000     0.0000000     0.0000000     0.0000000     0.0000000
     0.0000000     0.0000000     0.0000000     0.0000000     0.0000000     0.0000000     0.0000000
     0.0000000     0.0000000     0.0000000     0.0000000     0.0000000     0.0000000     0.0000000

 Ion:   19  E_soc:     -0.2771028
 l=   1
     0.0000000    -0.0461500    -0.0462055
    -0.0461500     0.0000000    -0.0460329
    -0.0462055    -0.0460329     0.0000000
 l=   2
     0.0000000    -0.0000170     0.0000000    -0.0000140    -0.0000466
    -0.0000170     0.0000000    -0.0000327    -0.0000125    -0.0000074
     0.0000000    -0.0000327     0.0000000    -0.0000253     0.0000000
    -0.0000140    -0.0000125    -0.0000253     0.0000000    -0.0000075
    -0.0000466    -0.0000074     0.0000000    -0.0000075     0.0000000
 l=   3
     0.0000000     0.0000000     0.0000000     0.0000000     0.0000000     0.0000000     0.0000000
     0.0000000     0.0000000     0.0000000     0.0000000     0.0000000     0.0000000     0.0000000
     0.0000000     0.0000000     0.0000000     0.0000000     0.0000000     0.0000000     0.0000000
     0.0000000     0.0000000     0.0000000     0.0000000     0.0000000     0.0000000     0.0000000
     0.0000000     0.0000000     0.0000000     0.0000000     0.0000000     0.0000000     0.0000000
     0.0000000     0.0000000     0.0000000     0.0000000     0.0000000     0.0000000     0.0000000
     0.0000000     0.0000000     0.0000000     0.0000000     0.0000000     0.0000000     0.0000000

 Ion:   20  E_soc:     -0.2771028
 l=   1
     0.0000000    -0.0461500    -0.0462054
    -0.0461500     0.0000000    -0.0460329
    -0.0462054    -0.0460329     0.0000000
 l=   2
     0.0000000    -0.0000170     0.0000000    -0.0000140    -0.0000466
    -0.0000170     0.0000000    -0.0000327    -0.0000125    -0.0000074
     0.0000000    -0.0000327     0.0000000    -0.0000253     0.0000000
    -0.0000140    -0.0000125    -0.0000253     0.0000000    -0.0000075
    -0.0000466    -0.0000074     0.0000000    -0.0000075     0.0000000
 l=   3
     0.0000000     0.0000000     0.0000000     0.0000000     0.0000000     0.0000000     0.0000000
     0.0000000     0.0000000     0.0000000     0.0000000     0.0000000     0.0000000     0.0000000
     0.0000000     0.0000000     0.0000000     0.0000000     0.0000000     0.0000000     0.0000000
     0.0000000     0.0000000     0.0000000     0.0000000     0.0000000     0.0000000     0.0000000
     0.0000000     0.0000000     0.0000000     0.0000000     0.0000000     0.0000000     0.0000000
     0.0000000     0.0000000     0.0000000     0.0000000     0.0000000     0.0000000     0.0000000
     0.0000000     0.0000000     0.0000000     0.0000000     0.0000000     0.0000000     0.0000000
 


 total charge     
 
# of ion       s       p       d       tot
------------------------------------------
    1        1.526   0.459   9.843  11.828
    2        1.526   0.459   9.843  11.828
    3        1.526   0.459   9.843  11.828
    4        1.526   0.459   9.843  11.828
    5        1.505   2.881   0.007   4.392
    6        1.505   2.881   0.007   4.392
    7        1.505   2.881   0.007   4.392
    8        1.505   2.881   0.007   4.392
    9        1.502   2.896   0.005   4.403
   10        1.502   2.896   0.005   4.403
   11        1.502   2.896   0.005   4.403
   12        1.502   2.896   0.005   4.403
   13        1.508   2.868   0.008   4.383
   14        1.508   2.868   0.008   4.383
   15        1.508   2.868   0.008   4.383
   16        1.508   2.868   0.008   4.383
   17        2.291   4.720   0.025   7.035
   18        2.291   4.720   0.025   7.035
   19        2.291   4.720   0.025   7.035
   20        2.291   4.720   0.025   7.035
--------------------------------------------------
tot         33.326  55.294  39.553 128.172
 


 magnetization (x)
 
# of ion       s       p       d       tot
------------------------------------------
    1        0.000   0.000   0.000   0.000
    2       -0.000  -0.000  -0.000  -0.000
    3        0.000   0.000   0.000   0.000
    4       -0.000  -0.000  -0.000  -0.000
    5        0.000  -0.000  -0.000   0.000
    6       -0.000   0.000   0.000   0.000
    7        0.000  -0.000  -0.000   0.000
    8       -0.000   0.000   0.000   0.000
    9       -0.000   0.001   0.000   0.001
   10        0.000  -0.001  -0.000  -0.001
   11       -0.000   0.001   0.000   0.001
   12        0.000  -0.001  -0.000  -0.001
   13        0.000  -0.001  -0.000  -0.000
   14       -0.000   0.001   0.000   0.000
   15        0.000  -0.001  -0.000  -0.000
   16       -0.000   0.001   0.000   0.000
   17        0.000   0.000  -0.000   0.000
   18       -0.000  -0.000   0.000  -0.000
   19        0.000   0.000  -0.000   0.000
   20       -0.000  -0.000   0.000  -0.000
--------------------------------------------------
tot          0.000   0.000  -0.000   0.000
 


 magnetization (y)
 
# of ion       s       p       d       tot
------------------------------------------
    1        0.000  -0.000   0.000  -0.000
    2        0.000  -0.000   0.000  -0.000
    3        0.000  -0.000   0.000  -0.000
    4        0.000  -0.000   0.000  -0.000
    5        0.000   0.000  -0.000   0.000
    6        0.000   0.000  -0.000   0.000
    7        0.000   0.000  -0.000   0.000
    8        0.000   0.000  -0.000   0.000
    9        0.000   0.000  -0.000   0.000
   10        0.000   0.000  -0.000   0.000
   11        0.000   0.000  -0.000   0.000
   12        0.000   0.000  -0.000   0.000
   13        0.000   0.000  -0.000   0.000
   14        0.000   0.000  -0.000   0.000
   15        0.000   0.000  -0.000   0.000
   16        0.000   0.000  -0.000   0.000
   17        0.000   0.000  -0.000   0.000
   18        0.000   0.000  -0.000   0.000
   19        0.000   0.000  -0.000   0.000
   20        0.000   0.000  -0.000   0.000
--------------------------------------------------
tot          0.000   0.000  -0.000   0.000
 


 magnetization (z)
 
# of ion       s       p       d       tot
------------------------------------------
    1        0.001   0.000  -0.000   0.001
    2       -0.001  -0.000   0.000  -0.001
    3       -0.001  -0.000   0.000  -0.001
    4        0.001   0.000  -0.000   0.001
    5        0.000  -0.001  -0.000  -0.001
    6       -0.000   0.001   0.000   0.001
    7       -0.000   0.001   0.000   0.001
    8        0.000  -0.001  -0.000  -0.000
    9       -0.000   0.001   0.000   0.001
   10        0.000  -0.001  -0.000  -0.001
   11        0.000  -0.001  -0.000  -0.001
   12       -0.000   0.001   0.000   0.001
   13       -0.000  -0.000   0.000  -0.000
   14        0.000   0.000  -0.000   0.000
   15        0.000   0.000  -0.000   0.000
   16       -0.000  -0.000   0.000  -0.000
   17       -0.000  -0.000  -0.000  -0.000
   18        0.000   0.000   0.000   0.000
   19        0.000   0.000   0.000   0.000
   20       -0.000  -0.000  -0.000  -0.000
--------------------------------------------------
tot          0.000   0.000  -0.000   0.001
 

 total amount of memory used by VASP MPI-rank0   857044. kBytes
=======================================================================

   base      :      30000. kBytes
   nonl-proj :     644474. kBytes
   fftplans  :       1865. kBytes
   grid      :      21331. kBytes
   one-center:       1244. kBytes
   HF        :        194. kBytes
   nonlr-proj:      12601. kBytes
   wavefun   :     145335. kBytes
 
  
  
 General timing and accounting informations for this job:
 ========================================================
  
                  Total CPU time used (sec):    20775.447
                            User time (sec):    20571.475
                          System time (sec):      203.972
                         Elapsed time (sec):    20876.075
  
                   Maximum memory used (kb):     2042340.
                   Average memory used (kb):           0.
  
                          Minor page faults:      8271200
                          Major page faults:          327
                 Voluntary context switches:        13414
