 vasp.5.4.4.18Apr17-6-g9f103f2a35 (build Aug 19 2019 13:15:05) complex          
  
 executed on             LinuxIFC date 2020.04.23  14:06:17
 running on  240 total cores
 distrk:  each k-point on  240 cores,    1 groups
 distr:  one band on NCORES_PER_BAND=   1 cores,  240 groups


--------------------------------------------------------------------------------------------------------


 INCAR:
 POTCAR:    PAW_PBE I 08Apr2002                   
 POTCAR:    PAW_PBE Pb_d 06Sep2000                
 POTCAR:    PAW_PBE Cs_sv 08Apr2002               

 ----------------------------------------------------------------------------- 
|                                                                             |
|           W    W    AA    RRRRR   N    N  II  N    N   GGGG   !!!           |
|           W    W   A  A   R    R  NN   N  II  NN   N  G    G  !!!           |
|           W    W  A    A  R    R  N N  N  II  N N  N  G       !!!           |
|           W WW W  AAAAAA  RRRRR   N  N N  II  N  N N  G  GGG   !            |
|           WW  WW  A    A  R   R   N   NN  II  N   NN  G    G                |
|           W    W  A    A  R    R  N    N  II  N    N   GGGG   !!!           |
|                                                                             |
|      For optimal performance we recommend to set                            |
|        NCORE= 4 - approx SQRT( number of cores)                             |
|      NCORE specifies how many cores store one orbital (NPAR=cpu/NCORE).     |
|      This setting can  greatly improve the performance of VASP for DFT.     |
|      The default,   NCORE=1            might be grossly inefficient         |
|      on modern multi-core architectures or massively parallel machines.     |
|      Do your own testing !!!!                                               |
|      Unfortunately you need to use the default for GW and RPA calculations. |
|      (for HF NCORE is supported but not extensively tested yet)             |
|                                                                             |
 ----------------------------------------------------------------------------- 

 POTCAR:    PAW_PBE I 08Apr2002                   
   VRHFIN =I : s2p5                                                             
   LEXCH  = PE                                                                  
   EATOM  =   315.8678 eV,   23.2156 Ry                                         
                                                                                
   TITEL  = PAW_PBE I 08Apr2002                                                 
   LULTRA =        F    use ultrasoft PP ?                                      
   IUNSCR =        1    unscreen: 0-lin 1-nonlin 2-no                           
   RPACOR =    2.200    partial core radius                                     
   POMASS =  126.904; ZVAL   =    7.000    mass and valenz                      
   RCORE  =    2.300    outmost cutoff radius                                   
   RWIGS  =    2.810; RWIGS  =    1.487    wigner-seitz radius (au A)           
   ENMAX  =  175.647; ENMIN  =  131.735 eV                                      
   ICORE  =        3    local potential                                         
   LCOR   =        T    correct aug charges                                     
   LPAW   =        T    paw PP                                                  
   EAUG   =  370.139                                                            
   DEXC   =    0.000                                                            
   RMAX   =    2.359    core radius for proj-oper                               
   RAUG   =    1.300    factor for augmentation sphere                          
   RDEP   =    2.392    radius for radial grids                                 
   RDEPT  =    2.170    core radius for aug-charge                              
                                                                                
   Atomic configuration                                                         
   13 entries                                                                   
     n  l   j            E        occ.                                          
     1  0  0.50    -32976.3739   2.0000                                         
     2  0  0.50     -5094.5933   2.0000                                         
     2  1  1.50     -4572.0131   6.0000                                         
     3  0  0.50     -1028.2813   2.0000                                         
     3  1  1.50      -859.0250   6.0000                                         
     3  2  2.50      -605.7620  10.0000                                         
     4  0  0.50      -180.5540   2.0000                                         
     4  1  1.50      -127.5306   6.0000                                         
     4  2  2.50       -50.2720  10.0000                                         
     5  0  0.50       -17.4058   2.0000                                         
     5  1  0.50        -7.0851   5.0000                                         
     5  2  1.50        -7.0750   0.0000                                         
     4  3  2.50        -7.0750   0.0000                                         
   Description                                                                  
     l       E           TYP  RCUT    TYP  RCUT                                 
     0    -17.4058016     23  2.300                                             
     0    -18.7663842     23  2.300                                             
     1     -7.0850686     23  2.300                                             
     1     -4.2150896     23  2.300                                             
     2     -7.0750295     23  2.300                                             
     3     -1.3605826     23  2.300                                             
  local pseudopotential read in
  partial core-charges read in
  partial kinetic energy density read in
  atomic valenz-charges read in
  non local Contribution for L=           0  read in
    real space projection operators read in
  non local Contribution for L=           0  read in
    real space projection operators read in
  non local Contribution for L=           1  read in
    real space projection operators read in
  non local Contribution for L=           1  read in
    real space projection operators read in
  non local Contribution for L=           2  read in
    real space projection operators read in
    PAW grid and wavefunctions read in
 
   number of l-projection  operators is LMAX  =           5
   number of lm-projection operators is LMMAX =          13
 
 POTCAR:    PAW_PBE Pb_d 06Sep2000                
   VRHFIN =Pb:                                                                  
   LEXCH  = PE                                                                  
   EATOM  =  1661.6185 eV,  122.1255 Ry                                         
                                                                                
   TITEL  = PAW_PBE Pb_d 06Sep2000                                              
   LULTRA =        F    use ultrasoft PP ?                                      
   IUNSCR =        1    unscreen: 0-lin 1-nonlin 2-no                           
   RPACOR =    2.200    partial core radius                                     
   POMASS =  207.200; ZVAL   =   14.000    mass and valenz                      
   RCORE  =    2.500    outmost cutoff radius                                   
   RWIGS  =    3.260; RWIGS  =    1.725    wigner-seitz radius (au A)           
   ENMAX  =  237.835; ENMIN  =  178.376 eV                                      
   ICORE  =        3    local potential                                         
   LCOR   =        T    correct aug charges                                     
   LPAW   =        T    paw PP                                                  
   EAUG   =  391.914                                                            
   DEXC   =    0.000                                                            
   RMAX   =    2.565    core radius for proj-oper                               
   RAUG   =    1.300    factor for augmentation sphere                          
   RDEP   =    2.643    radius for radial grids                                 
   RDEPT  =    2.092    core radius for aug-charge                              
                                                                                
   Atomic configuration                                                         
   16 entries                                                                   
     n  l   j            E        occ.                                          
     1  0  0.50    -88091.8466   2.0000                                         
     2  0  0.50    -15753.4197   2.0000                                         
     2  1  1.50    -13508.1797   6.0000                                         
     3  0  0.50     -3781.7194   2.0000                                         
     3  1  1.50     -3138.2529   6.0000                                         
     3  2  2.50     -2483.2977  10.0000                                         
     4  0  0.50      -856.2895   2.0000                                         
     4  1  1.50      -645.4942   6.0000                                         
     4  2  2.50      -401.8768  10.0000                                         
     4  3  3.50      -132.9059  14.0000                                         
     5  0  0.50      -144.0950   2.0000                                         
     5  1  1.50       -85.7879   6.0000                                         
     5  2  2.50       -21.1769  10.0000                                         
     6  0  0.50       -12.0372   2.0000                                         
     6  1  1.50        -3.4971   2.0000                                         
     5  3  2.50        -2.7212   0.0000                                         
   Description                                                                  
     l       E           TYP  RCUT    TYP  RCUT                                 
     2    -21.1768523     23  2.500                                             
     2      1.3605826     23  2.500                                             
     0    -12.0371562     23  2.500                                             
     0     13.6058260     23  2.500                                             
     1     -3.4971339     23  2.500                                             
     1     13.6058260     23  2.500                                             
     3     -1.3605826      7  2.500                                             
  local pseudopotential read in
  partial core-charges read in
  partial kinetic energy density read in
  atomic valenz-charges read in
  non local Contribution for L=           2  read in
    real space projection operators read in
  non local Contribution for L=           2  read in
    real space projection operators read in
  non local Contribution for L=           0  read in
    real space projection operators read in
  non local Contribution for L=           0  read in
    real space projection operators read in
  non local Contribution for L=           1  read in
    real space projection operators read in
  non local Contribution for L=           1  read in
    real space projection operators read in
    PAW grid and wavefunctions read in
 
   number of l-projection  operators is LMAX  =           6
   number of lm-projection operators is LMMAX =          18
 
 POTCAR:    PAW_PBE Cs_sv 08Apr2002               
   VRHFIN =Cs: 5s5p6s                                                           
   LEXCH  = PE                                                                  
   EATOM  =   555.6835 eV,   40.8416 Ry                                         
                                                                                
   TITEL  = PAW_PBE Cs_sv 08Apr2002                                             
   LULTRA =        F    use ultrasoft PP ?                                      
   IUNSCR =        1    unscreen: 0-lin 1-nonlin 2-no                           
   RPACOR =    2.200    partial core radius                                     
   POMASS =  132.900; ZVAL   =    9.000    mass and valenz                      
   RCORE  =    2.500    outmost cutoff radius                                   
   RWIGS  =    2.500; RWIGS  =    1.323    wigner-seitz radius (au A)           
   ENMAX  =  220.318; ENMIN  =  165.238 eV                                      
   RCLOC  =    2.207    cutoff for local pot                                    
   LCOR   =        T    correct aug charges                                     
   LPAW   =        T    paw PP                                                  
   EAUG   =  407.933                                                            
   DEXC   =    0.000                                                            
   RMAX   =    2.554    core radius for proj-oper                               
   RAUG   =    1.300    factor for augmentation sphere                          
   RDEP   =    2.590    radius for radial grids                                 
   RDEPT  =    2.117    core radius for aug-charge                              
                                                                                
   Atomic configuration                                                         
   13 entries                                                                   
     n  l   j            E        occ.                                          
     1  0  0.50    -35790.1377   2.0000                                         
     2  0  0.50     -5613.6201   2.0000                                         
     2  1  1.50     -5035.0101   6.0000                                         
     3  0  0.50     -1167.0767   2.0000                                         
     3  1  1.50      -980.9754   6.0000                                         
     3  2  2.50      -708.0703  10.0000                                         
     4  0  0.50      -220.2386   2.0000                                         
     4  1  1.50      -160.7596   6.0000                                         
     4  2  2.50       -74.2354  10.0000                                         
     5  0  0.50       -26.7287   2.0000                                         
     6  0  0.50        -2.0862   1.0000                                         
     5  1  1.50       -13.5159   6.0000                                         
     5  2  2.50        -0.4136   0.0000                                         
   Description                                                                  
     l       E           TYP  RCUT    TYP  RCUT                                 
     0    -26.7287425     23  1.900                                             
     0     -2.0862306     23  1.900                                             
     1    -13.5158719     23  2.500                                             
     1     -2.7211652     23  2.500                                             
     2     -0.4136171     23  2.500                                             
  local pseudopotential read in
  partial core-charges read in
  partial kinetic energy density read in
  atomic valenz-charges read in
  non local Contribution for L=           0  read in
    real space projection operators read in
  non local Contribution for L=           0  read in
    real space projection operators read in
  non local Contribution for L=           1  read in
    real space projection operators read in
  non local Contribution for L=           1  read in
    real space projection operators read in
  non local Contribution for L=           2  read in
    real space projection operators read in
    PAW grid and wavefunctions read in
 
   number of l-projection  operators is LMAX  =           5
   number of lm-projection operators is LMMAX =          13
 
 Optimization of the real space projectors (new method)

 maximal supplied QI-value         = 16.25
 optimisation between [QCUT,QGAM] = [ 10.73, 21.61] = [ 32.22,130.83] Ry 
 Optimized for a Real-space Cutoff    1.30 Angstroem

   l    n(q)    QCUT    max X(q) W(low)/X(q) W(high)/X(q)  e(spline) 
   0      8    10.726   194.483    0.28E-03    0.91E-04    0.87E-07
   0      8    10.726   190.334    0.27E-03    0.88E-04    0.85E-07
   1      8    10.726   116.687    0.16E-03    0.48E-03    0.15E-06
   1      8    10.726    88.696    0.16E-03    0.47E-03    0.15E-06
   2      7    10.726     4.877    0.19E-03    0.30E-04    0.27E-07
 Optimization of the real space projectors (new method)

 maximal supplied QI-value         = 15.12
 optimisation between [QCUT,QGAM] = [ 10.73, 21.62] = [ 32.26,130.87] Ry 
 Optimized for a Real-space Cutoff    1.38 Angstroem

   l    n(q)    QCUT    max X(q) W(low)/X(q) W(high)/X(q)  e(spline) 
   2      8    10.734     3.846    0.42E-03    0.65E-04    0.45E-07
   2      8    10.734     8.593    0.38E-03    0.21E-03    0.11E-06
   0      9    10.734    20.082    0.60E-04    0.15E-03    0.97E-07
   0      9    10.734     8.597    0.89E-04    0.21E-03    0.14E-06
   1      8    10.734    33.223    0.23E-03    0.26E-03    0.11E-06
   1      8    10.734    15.899    0.21E-03    0.24E-03    0.10E-06
 Optimization of the real space projectors (new method)

 maximal supplied QI-value         = 15.12
 optimisation between [QCUT,QGAM] = [ 10.73, 21.62] = [ 32.26,130.87] Ry 
 Optimized for a Real-space Cutoff    1.55 Angstroem

   l    n(q)    QCUT    max X(q) W(low)/X(q) W(high)/X(q)  e(spline) 
   0     10    10.734    25.322    0.12E-03    0.12E-04    0.48E-06
   0     10    10.734    99.187    0.12E-03    0.12E-04    0.47E-06
   1     10    10.734    11.761    0.20E-03    0.42E-03    0.27E-06
   1     10    10.734     8.275    0.21E-03    0.46E-03    0.30E-06
   2      9    10.734     3.829    0.32E-03    0.79E-04    0.33E-06
  PAW_PBE I 08Apr2002                   :
 energy of atom  1       EATOM= -315.8678
 kinetic energy error for atom=    0.0010 (will be added to EATOM!!)
  PAW_PBE Pb_d 06Sep2000                :
 energy of atom  2       EATOM=-1661.6185
 kinetic energy error for atom=    0.0063 (will be added to EATOM!!)
  PAW_PBE Cs_sv 08Apr2002               :
 energy of atom  3       EATOM= -555.6835
 kinetic energy error for atom=    0.0031 (will be added to EATOM!!)
 
 
 POSCAR: CsPbI3_325K                             
  positions in direct lattice
  velocities in cartesian coordinates
 exchange correlation table for  LEXCH =        8
   RHO(1)=    0.500       N(1)  =     2000
   RHO(2)=  100.500       N(2)  =     4000
 


--------------------------------------------------------------------------------------------------------


 ion  position               nearest neighbor table
   1  0.192  0.306  0.540-  14 3.21  13 3.21
   2  0.808  0.694  0.460-  14 3.21  13 3.21
   3  0.692  0.194  0.460-  13 3.21  14 3.21
   4  0.308  0.806  0.540-  13 3.21  14 3.21
   5  0.808  0.694  0.040-  16 3.21  15 3.21
   6  0.192  0.306  0.960-  16 3.21  15 3.21
   7  0.308  0.806  0.960-  15 3.21  16 3.21
   8  0.692  0.194  0.040-  15 3.21  16 3.21
   9  0.918  0.000  0.750-  15 3.21  13 3.21
  10  0.082  1.000  0.250-  13 3.21  15 3.21
  11  0.418  0.500  0.250-  14 3.21  16 3.21
  12  0.582  0.500  0.750-  16 3.21  14 3.21
  13  0.000  0.000  0.500-   3 3.21   4 3.21  10 3.21   9 3.21   1 3.21   2 3.21
  14  0.500  0.500  0.500-   2 3.21   1 3.21  11 3.21  12 3.21   3 3.21   4 3.21
  15  0.000  0.000  0.000-   8 3.21   7 3.21   9 3.21  10 3.21   6 3.21   5 3.21
  16  0.500  0.500  0.000-   5 3.21   6 3.21  12 3.21  11 3.21   8 3.21   7 3.21
  17  0.978  0.424  0.250-
  18  0.022  0.576  0.750-
  19  0.478  0.076  0.750-
  20  0.522  0.924  0.250-
 
  LATTYP: Found a simple orthorhombic cell.
 ALAT       =     8.6751003265
 B/A-ratio  =     1.0171640703
 C/A-ratio  =     1.4438795264
  
  Lattice vectors:
  
 A1 = (   8.6751003265,   0.0000000000,   0.0000000000)
 A2 = (   0.0000000000,   8.8240003586,   0.0000000000)
 A3 = (   0.0000000000,   0.0000000000,  12.5257997513)


Analysis of symmetry for initial positions (statically):
=====================================================================
 Subroutine PRICEL returns:
 Original cell was already a primitive cell.
 

 Routine SETGRP: Setting up the symmetry group for a 
 simple orthorhombic supercell.


 Subroutine GETGRP returns: Found  8 space group operations
 (whereof  2 operations were pure point group operations)
 out of a pool of  8 trial point group operations.


The static configuration has the point symmetry S_2 .
 The point group associated with its full space group is D_2h.


Analysis of symmetry for dynamics (positions and initial velocities):
=====================================================================
 Subroutine PRICEL returns:
 Original cell was already a primitive cell.
 

 Routine SETGRP: Setting up the symmetry group for a 
 simple orthorhombic supercell.


 Subroutine GETGRP returns: Found  8 space group operations
 (whereof  2 operations were pure point group operations)
 out of a pool of  8 trial point group operations.


The dynamic configuration has the point symmetry S_2 .
 The point group associated with its full space group is D_2h.


 Subroutine INISYM returns: Found  8 space group operations
 (whereof  2 operations are pure point group operations),
 and found     1 'primitive' translations

 
 
 KPOINTS: 0.080   1   1   1    1  0.080   44   12 
  k-points in reciprocal lattice
Space group operators:
 irot       det(A)        alpha          n_x          n_y          n_z        tau_x        tau_y        tau_z
    1     1.000000     0.000000     1.000000     0.000000     0.000000     0.000000     0.000000     0.000000
    2    -1.000000     0.000000     1.000000     0.000000     0.000000     0.000000     0.000000     0.000000
    3     1.000000   180.000000     0.000000     0.000000     1.000000     0.000000     0.000000     0.500000
    4    -1.000000   180.000000     0.000000     0.000000     1.000000     0.000000     0.000000     0.500000
    5     1.000000   180.000000     0.000000     1.000000     0.000000     0.500000     0.500000     0.500000
    6    -1.000000   180.000000     0.000000     1.000000     0.000000     0.500000     0.500000     0.500000
    7     1.000000   179.999999     1.000000     0.000000     0.000000     0.500000     0.500000     0.000000
    8    -1.000000   179.999999     1.000000     0.000000     0.000000     0.500000     0.500000     0.000000

 ----------------------------------------------------------------------------- 
|                                                                             |
|           W    W    AA    RRRRR   N    N  II  N    N   GGGG   !!!           |
|           W    W   A  A   R    R  NN   N  II  NN   N  G    G  !!!           |
|           W    W  A    A  R    R  N N  N  II  N N  N  G       !!!           |
|           W WW W  AAAAAA  RRRRR   N  N N  II  N  N N  G  GGG   !            |
|           WW  WW  A    A  R   R   N   NN  II  N   NN  G    G                |
|           W    W  A    A  R    R  N    N  II  N    N   GGGG   !!!           |
|                                                                             |
|      Your generating k-point grid is not commensurate to the symmetry       |
|      of the lattice.  This can cause   slow convergence with respect        |
|      to k-points for HF type calculations                                   |
|      suggested SOLUTIONS:                                                   |
|       ) if not already the case, use automatic k-point generation           |
|       ) shift your grid to Gamma (G) (e.g. required for hex or fcc lattice) |
|                                                                             |
 ----------------------------------------------------------------------------- 

 
 Subroutine IBZKPT_HF returns following result:
 ==============================================
 
 Found     45 k-points in 1st BZ
 the following     45 k-points will be used (e.g. in the exchange kernel)
 Following reciprocal coordinates:   # in IRBZ
  0.000000  0.000000  0.000000    1.00000000   1 t-inv F
  0.000000  0.000000  0.000000    0.00000000   2 t-inv F
  0.166667  0.000000  0.000000    0.00000000   3 t-inv F
  0.333333  0.000000  0.000000    0.00000000   4 t-inv F
  0.500000  0.000000  0.000000    0.00000000   5 t-inv F
  0.500000  0.000000  0.000000    0.00000000   6 t-inv F
  0.500000  0.166667  0.000000    0.00000000   7 t-inv F
  0.500000  0.333333  0.000000    0.00000000   8 t-inv F
  0.500000  0.500000  0.000000    0.00000000   9 t-inv F
  0.500000  0.500000  0.000000    0.00000000  10 t-inv F
  0.333333  0.500000  0.000000    0.00000000  11 t-inv F
  0.166667  0.500000  0.000000    0.00000000  12 t-inv F
  0.000000  0.500000  0.000000    0.00000000  13 t-inv F
  0.000000  0.500000  0.000000    0.00000000  14 t-inv F
  0.000000  0.333333  0.000000    0.00000000  15 t-inv F
  0.000000  0.166667  0.000000    0.00000000  16 t-inv F
  0.000000  0.000000  0.000000    0.00000000  17 t-inv F
  0.000000  0.000000  0.000000    0.00000000  18 t-inv F
  0.000000  0.000000  0.250000    0.00000000  19 t-inv F
  0.000000  0.000000  0.500000    0.00000000  20 t-inv F
  0.000000  0.000000  0.500000    0.00000000  21 t-inv F
  0.166667  0.000000  0.500000    0.00000000  22 t-inv F
  0.333333  0.000000  0.500000    0.00000000  23 t-inv F
  0.500000  0.000000  0.500000    0.00000000  24 t-inv F
  0.500000  0.000000  0.500000    0.00000000  25 t-inv F
  0.500000  0.166667  0.500000    0.00000000  26 t-inv F
  0.500000  0.333333  0.500000    0.00000000  27 t-inv F
  0.500000  0.500000  0.500000    0.00000000  28 t-inv F
  0.500000  0.500000  0.500000    0.00000000  29 t-inv F
  0.333333  0.500000  0.500000    0.00000000  30 t-inv F
  0.166667  0.500000  0.500000    0.00000000  31 t-inv F
  0.000000  0.500000  0.500000    0.00000000  32 t-inv F
  0.000000  0.500000  0.500000    0.00000000  33 t-inv F
  0.000000  0.333333  0.500000    0.00000000  34 t-inv F
  0.000000  0.166667  0.500000    0.00000000  35 t-inv F
  0.000000  0.000000  0.500000    0.00000000  36 t-inv F
  0.500000  0.000000  0.000000    0.00000000  37 t-inv F
  0.500000  0.000000  0.250000    0.00000000  38 t-inv F
  0.500000  0.000000  0.500000    0.00000000  39 t-inv F
  0.000000  0.500000  0.000000    0.00000000  40 t-inv F
  0.000000  0.500000  0.250000    0.00000000  41 t-inv F
  0.000000  0.500000  0.500000    0.00000000  42 t-inv F
  0.500000  0.500000  0.000000    0.00000000  43 t-inv F
  0.500000  0.500000  0.250000    0.00000000  44 t-inv F
  0.500000  0.500000  0.500000    0.00000000  45 t-inv F


--------------------------------------------------------------------------------------------------------




 Dimension of arrays:
   k-points           NKPTS =     45   k-points in BZ     NKDIM =     45   number of bands    NBANDS=    240
   number of dos      NEDOS =   2001   number of ions     NIONS =     20
   non local maximal  LDIM  =      6   non local SUM 2l+1 LMDIM =     18
   total plane-waves  NPLWV = 161280
   max r-space proj   IRMAX =   2694   max aug-charges    IRDMAX=  78029
   dimension x,y,z NGX =    48 NGY =   48 NGZ =   70
   dimension x,y,z NGXF=    96 NGYF=   96 NGZF=  140
   support grid    NGXF=   192 NGYF=  192 NGZF=  280
   ions per type =              12   4   4
   NGX,Y,Z   is equivalent  to a cutoff of   9.20,  9.04,  9.29 a.u.
   NGXF,Y,Z  is equivalent  to a cutoff of  18.40, 18.09, 18.58 a.u.

 SYSTEM =  unknown system                          
 POSCAR =  CsPbI3_325K                             

 Startparameter for this run:
   NWRITE =      2    write-flag & timer
   PREC   = normal    normal or accurate (medium, high low for compatibility)
   ISTART =      1    job   : 0-new  1-cont  2-samecut
   ICHARG =     11    charge: 1-file 2-atom 10-const
   ISPIN  =      1    spin polarized calculation?
   LNONCOLLINEAR =      F non collinear calculations
   LSORBIT =      F    spin-orbit coupling
   INIWAV =      1    electr: 0-lowe 1-rand  2-diag
   LASPH  =      F    aspherical Exc in radial PAW
   METAGGA=      F    non-selfconsistent MetaGGA calc.

 Electronic Relaxation 1
   ENCUT  =  520.0 eV  33.07 Ry    5.75 a.u.  15.01 15.26 21.67*2*pi/ulx,y,z
   ENINI  =  520.0     initial cutoff
   ENAUG  =  407.9 eV  augmentation charge cutoff
   NELM   =     60;   NELMIN=  2; NELMDL=  0     # of ELM steps 
   EDIFF  = 0.1E-05   stopping-criterion for ELM
   LREAL  =      T    real-space projection
   NLSPLINE    = F    spline interpolate recip. space projectors
   LCOMPAT=      F    compatible to vasp.4.4
   GGA_COMPAT  = T    GGA compatible to vasp.4.4-vasp.4.6
   LMAXPAW     = -100 max onsite density
   LMAXMIX     =    2 max onsite mixed and CHGCAR
   VOSKOWN=      0    Vosko Wilk Nusair interpolation
   ROPT   =   -0.00050  -0.00050  -0.00050
 Ionic relaxation
   EDIFFG = 0.1E-04   stopping-criterion for IOM
   NSW    =      0    number of steps for IOM
   NBLOCK =      1;   KBLOCK =      1    inner block; outer block 
   IBRION =     -1    ionic relax: 0-MD 1-quasi-New 2-CG
   NFREE  =      0    steps in history (QN), initial steepest desc. (CG)
   ISIF   =      0    stress and relaxation
   IWAVPR =     10    prediction:  0-non 1-charg 2-wave 3-comb
   ISYM   =      3    0-nonsym 1-usesym 2-fastsym
   LCORR  =      T    Harris-Foulkes like correction to forces

   POTIM  = 0.5000    time-step for ionic-motion
   TEIN   =    0.0    initial temperature
   TEBEG  =    0.0;   TEEND  =   0.0 temperature during run
   SMASS  =  -3.00    Nose mass-parameter (am)
   estimated Nose-frequenzy (Omega)   =  0.10E-29 period in steps =****** mass=  -0.172E-26a.u.
   SCALEE = 1.0000    scale energy and forces
   NPACO  =    256;   APACO  = 16.0  distance and # of slots for P.C.
   PSTRESS=    0.0 pullay stress

  Mass of Ions in am
   POMASS = 126.90207.20132.90
  Ionic Valenz
   ZVAL   =   7.00 14.00  9.00
  Atomic Wigner-Seitz radii
   RWIGS  =  -1.00 -1.00 -1.00
  virtual crystal weights 
   VCA    =   1.00  1.00  1.00
   NELECT =     176.0000    total number of electrons
   NUPDOWN=      -1.0000    fix difference up-down

 DOS related values:
   EMIN   =  10.00;   EMAX   =-10.00  energy-range for DOS
   EFERMI =   0.00
   ISMEAR =     0;   SIGMA  =   0.05  broadening in eV -4-tet -1-fermi 0-gaus

 Electronic relaxation 2 (details)
   IALGO  =     58    algorithm
   LDIAG  =      T    sub-space diagonalisation (order eigenvalues)
   LSUBROT=      F    optimize rotation matrix (better conditioning)
   TURBO    =      0    0=normal 1=particle mesh
   IRESTART =      0    0=no restart 2=restart with 2 vectors
   NREBOOT  =      0    no. of reboots
   NMIN     =      0    reboot dimension
   EREF     =   0.00    reference energy to select bands
   IMIX   =      4    mixing-type and parameters
     AMIX     =   0.40;   BMIX     =  1.00
     AMIX_MAG =   1.60;   BMIX_MAG =  1.00
     AMIN     =   0.10
     WC   =   100.;   INIMIX=   1;  MIXPRE=   1;  MAXMIX= -45

 Intra band minimization:
   WEIMIN = 0.0000     energy-eigenvalue tresh-hold
   EBREAK =  0.10E-08  absolut break condition
   DEPER  =   0.30     relativ break condition  

   TIME   =   0.40     timestep for ELM

  volume/ion in A,a.u.               =      47.94       323.53
  Fermi-wavevector in a.u.,A,eV,Ry     =   0.930388  1.758178 11.777489  0.865621
  Thomas-Fermi vector in A             =   2.056771
 
 Write flags
   LWAVE        =      F    write WAVECAR
   LDOWNSAMPLE  =      F    k-point downsampling of WAVECAR
   LCHARG       =      F    write CHGCAR
   LVTOT        =      F    write LOCPOT, total local potential
   LVHAR        =      F    write LOCPOT, Hartree potential only
   LELF         =      F    write electronic localiz. function (ELF)
   LORBIT       =     10    0 simple, 1 ext, 2 COOP (PROOUT), +10 PAW based schemes


 Dipole corrections
   LMONO  =      F    monopole corrections only (constant potential shift)
   LDIPOL =      F    correct potential (dipole corrections)
   IDIPOL =      0    1-x, 2-y, 3-z, 4-all directions 
   EPSILON=  1.0000000 bulk dielectric constant

 Exchange correlation treatment:
   GGA     =    --    GGA type
   LEXCH   =     8    internal setting for exchange type
   VOSKOWN=      0    Vosko Wilk Nusair interpolation
   EXXOEP  =     0    0=HF, 1=EXX-LHF (local Hartree Fock) 2=EXX OEP
   LHFCALC =     T    Hartree Fock is set to
   LSYMGRAD=     F    symmetrize gradient (conserves proper symmetry)
   PRECFOCK=normal    Normal, Fast or Accurate (Low or Medium for compatibility)
   LRHFCALC=     F    long range Hartree Fock
   LRSCOR  =     F    long range correlation only (use DFT for short range part)
   LTHOMAS =     F    Thomas Fermi screening in HF
   LMODELHF=     F    short range full HF, long range fraction AEXX
   ENCUT4O =  -1.0   cutoff for four orbital integrals eV
   LMAXFOCK=     4    L truncation for augmentation on plane wave grid
   LMAXFOCKAE=  -1    L truncation for all-electron charge restoration on plane wave grid
   NMAXFOCKAE=   1    number of basis functions for all-electron charge restoration
   LFOCKAEDFT=     F  apply the AE augmentation even for DFT
   NKREDX  =     1    reduce k-point grid by
   NKREDY  =     1    reduce k-point grid by
   NKREDZ  =     1    reduce k-point grid by
   SHIFTRED=     F    shift reduced grid of Gamma
   HFKIDENT=     F    idential grid for each k-point
   ODDONLY =     F    use only odd q-grid points
   EVENONLY=     F    use only even q-grid points
   HFALPHA =   -1.0000 decay constant for conv. correction
   MCALPHA =    0.0000 extent of test-charge in conv. correction in multipole expansion
   AEXX    =    0.2500 exact exchange contribution
   HFSCREEN=    0.2000 screening length (either q_TF or 0.3 A-1)
   HFSCREENC=   0.2000 screening length for correlation (either q_TF or 0.3 A-1)
   HFRCUT  =    0.0000 spherical cutoff for potential kernel
   ALDAX   =    0.7500 LDA exchange part
   AGGAX   =    0.7500 GGA exchange part
   ALDAC   =    1.0000 LDA correlation
   AGGAC   =    1.0000 GGA correlation
   ENCUTFOCK=  -1.0 apply spherical cutoff to Coloumb kernel
   NBANDSGWLOW=     1    first orbital included in HF term
   NBLOCK_FOCK=    64    blocking factor in FOCK_ACC
 Linear response parameters
   LEPSILON=     F    determine dielectric tensor
   LRPA    =     F    only Hartree local field effects (RPA)
   LNABLA  =     F    use nabla operator in PAW spheres
   LVEL    =     F    velocity operator in full k-point grid
   LINTERFAST=   F  fast interpolation
   KINTER  =     0    interpolate to denser k-point grid
   CSHIFT  =0.1000    complex shift for real part using Kramers Kronig
   OMEGAMAX=  -1.0    maximum frequency
   DEG_THRESHOLD= 0.2000000E-02 threshold for treating states as degnerate
   RTIME   =   -0.100 relaxation time in fs
  (WPLASMAI=    0.000 imaginary part of plasma frequency in eV, 0.658/RTIME)
   DFIELD  = 0.0000000 0.0000000 0.0000000 field for delta impulse in time
 
 Orbital magnetization related:
   ORBITALMAG=     F  switch on orbital magnetization
   LCHIMAG   =     F  perturbation theory with respect to B field
   DQ        =  0.001000  dq finite difference perturbation B field
   LLRAUG    =     F  two centre corrections for induced B field



--------------------------------------------------------------------------------------------------------


 Static calculation
 charge density and potential remain constant during run
 non-spin polarized calculation
 Conjugate gradient for all bands (Freysoldt, et al. PRB 79, 241103 (2009))
 preconditioned conjugated gradient   charged. constant during bandupdate  
 perform sub-space diagonalisation
    before iterative eigenvector-optimisation
 no mixing
 using additional bands          152
 real space projection scheme for non local part
 use partial core corrections
 calculate Harris-corrections to forces 
   (improved forces if not selfconsistent)
 use gradient corrections 
 WARNING: stress and forces are not correct
  (second derivative of E(xc) not defined)
 use of overlap-Matrix (Vanderbilt PP)
 Gauss-broadening in eV      SIGMA  =   0.05


--------------------------------------------------------------------------------------------------------


  energy-cutoff  :      450.00
  volume of cell :      958.84
      direct lattice vectors                 reciprocal lattice vectors
     8.675100327  0.000000000  0.000000000     0.115272442  0.000000000  0.000000000
     0.000000000  8.824000359  0.000000000     0.000000000  0.113327285  0.000000000
     0.000000000  0.000000000 12.525799751     0.000000000  0.000000000  0.079835222

  length of vectors
     8.675100327  8.824000359 12.525799751     0.115272442  0.113327285  0.079835222


 
 old parameters found on file WAVECAR:
  energy-cutoff  :      450.00
  volume of cell :      958.84
      direct lattice vectors                 reciprocal lattice vectors
     8.675100327  0.000000000  0.000000000     0.115272442  0.000000000  0.000000000
     0.000000000  8.824000359  0.000000000     0.000000000  0.113327285  0.000000000
     0.000000000  0.000000000 12.525799751     0.000000000  0.000000000  0.079835222

  length of vectors

 
 k-points in units of 2pi/SCALE and weight: 0.080   1   1   1    1  0.080   44   12 
   0.00000000  0.00000000  0.00000000       1.000
   0.00000000  0.00000000  0.00000000       0.000
   0.01921207  0.00000000  0.00000000       0.000
   0.03842415  0.00000000  0.00000000       0.000
   0.05763622  0.00000000  0.00000000       0.000
   0.05763622  0.00000000  0.00000000       0.000
   0.05763622  0.01888788  0.00000000       0.000
   0.05763622  0.03777576  0.00000000       0.000
   0.05763622  0.05666364  0.00000000       0.000
   0.05763622  0.05666364  0.00000000       0.000
   0.03842415  0.05666364  0.00000000       0.000
   0.01921207  0.05666364  0.00000000       0.000
   0.00000000  0.05666364  0.00000000       0.000
   0.00000000  0.05666364  0.00000000       0.000
   0.00000000  0.03777576  0.00000000       0.000
   0.00000000  0.01888788  0.00000000       0.000
   0.00000000  0.00000000  0.00000000       0.000
   0.00000000  0.00000000  0.00000000       0.000
   0.00000000  0.00000000  0.01995881       0.000
   0.00000000  0.00000000  0.03991761       0.000
   0.00000000  0.00000000  0.03991761       0.000
   0.01921207  0.00000000  0.03991761       0.000
   0.03842415  0.00000000  0.03991761       0.000
   0.05763622  0.00000000  0.03991761       0.000
   0.05763622  0.00000000  0.03991761       0.000
   0.05763622  0.01888788  0.03991761       0.000
   0.05763622  0.03777576  0.03991761       0.000
   0.05763622  0.05666364  0.03991761       0.000
   0.05763622  0.05666364  0.03991761       0.000
   0.03842415  0.05666364  0.03991761       0.000
   0.01921207  0.05666364  0.03991761       0.000
   0.00000000  0.05666364  0.03991761       0.000
   0.00000000  0.05666364  0.03991761       0.000
   0.00000000  0.03777576  0.03991761       0.000
   0.00000000  0.01888788  0.03991761       0.000
   0.00000000  0.00000000  0.03991761       0.000
   0.05763622  0.00000000  0.00000000       0.000
   0.05763622  0.00000000  0.01995881       0.000
   0.05763622  0.00000000  0.03991761       0.000
   0.00000000  0.05666364  0.00000000       0.000
   0.00000000  0.05666364  0.01995881       0.000
   0.00000000  0.05666364  0.03991761       0.000
   0.05763622  0.05666364  0.00000000       0.000
   0.05763622  0.05666364  0.01995881       0.000
   0.05763622  0.05666364  0.03991761       0.000
 
 k-points in reciprocal lattice and weights: 0.080   1   1   1    1  0.080   44   12 
   0.00000000  0.00000000  0.00000000       1.000
   0.00000000  0.00000000  0.00000000       0.000
   0.16666667  0.00000000  0.00000000       0.000
   0.33333333  0.00000000  0.00000000       0.000
   0.50000000  0.00000000  0.00000000       0.000
   0.50000000  0.00000000  0.00000000       0.000
   0.50000000  0.16666667  0.00000000       0.000
   0.50000000  0.33333333  0.00000000       0.000
   0.50000000  0.50000000  0.00000000       0.000
   0.50000000  0.50000000  0.00000000       0.000
   0.33333333  0.50000000  0.00000000       0.000
   0.16666667  0.50000000  0.00000000       0.000
   0.00000000  0.50000000  0.00000000       0.000
   0.00000000  0.50000000  0.00000000       0.000
   0.00000000  0.33333333  0.00000000       0.000
   0.00000000  0.16666667  0.00000000       0.000
   0.00000000  0.00000000  0.00000000       0.000
   0.00000000  0.00000000  0.00000000       0.000
   0.00000000  0.00000000  0.25000000       0.000
   0.00000000  0.00000000  0.50000000       0.000
   0.00000000  0.00000000  0.50000000       0.000
   0.16666667  0.00000000  0.50000000       0.000
   0.33333333  0.00000000  0.50000000       0.000
   0.50000000  0.00000000  0.50000000       0.000
   0.50000000  0.00000000  0.50000000       0.000
   0.50000000  0.16666667  0.50000000       0.000
   0.50000000  0.33333333  0.50000000       0.000
   0.50000000  0.50000000  0.50000000       0.000
   0.50000000  0.50000000  0.50000000       0.000
   0.33333333  0.50000000  0.50000000       0.000
   0.16666667  0.50000000  0.50000000       0.000
   0.00000000  0.50000000  0.50000000       0.000
   0.00000000  0.50000000  0.50000000       0.000
   0.00000000  0.33333333  0.50000000       0.000
   0.00000000  0.16666667  0.50000000       0.000
   0.00000000  0.00000000  0.50000000       0.000
   0.50000000  0.00000000  0.00000000       0.000
   0.50000000  0.00000000  0.25000000       0.000
   0.50000000  0.00000000  0.50000000       0.000
   0.00000000  0.50000000  0.00000000       0.000
   0.00000000  0.50000000  0.25000000       0.000
   0.00000000  0.50000000  0.50000000       0.000
   0.50000000  0.50000000  0.00000000       0.000
   0.50000000  0.50000000  0.25000000       0.000
   0.50000000  0.50000000  0.50000000       0.000
 
 position of ions in fractional coordinates (direct lattice) 
   0.19227051  0.30587406  0.54028163
   0.80772943  0.69412589  0.45971837
   0.69227057  0.19412594  0.45971837
   0.30772949  0.80587411  0.54028163
   0.80772943  0.69412589  0.04028164
   0.19227051  0.30587406  0.95971837
   0.30772949  0.80587411  0.95971837
   0.69227057  0.19412594  0.04028164
   0.91757977  0.00007447  0.75000002
   0.08242017  0.99992553  0.25000000
   0.41757982  0.49992553  0.25000000
   0.58242018  0.50007447  0.75000002
   0.00000000  0.00000000  0.50000000
   0.50000000  0.50000000  0.50000000
   0.00000000  0.00000000  0.00000000
   0.50000000  0.50000000  0.00000000
   0.97805666  0.42438825  0.25000000
   0.02194334  0.57561175  0.75000002
   0.47805666  0.07561174  0.75000002
   0.52194334  0.92438825  0.25000000
 
 position of ions in cartesian coordinates  (Angst):
   1.66796599  2.69903280  6.76745953
   7.00713386  6.12496708  5.75834022
   6.00551663  1.71296738  5.75834022
   2.66958417  7.11103345  6.76745953
   7.00713386  6.12496708  0.50455974
   1.66796599  2.69903280 12.02124010
   2.66958417  7.11103345 12.02124010
   6.00551663  1.71296738  0.50455974
   7.96009654  0.00065714  9.39435005
   0.71500325  8.82334327  3.13144994
   3.62254686  4.41134304  3.13144994
   5.05255347  4.41265732  9.39435005
   0.00000000  0.00000000  6.26289988
   4.33755016  4.41200018  6.26289988
   0.00000000  0.00000000  0.00000000
   4.33755016  4.41200018  0.00000000
   8.48473964  3.74480210  3.13144994
   0.19036067  5.07919826  9.39435005
   4.14718948  0.66719802  9.39435005
   4.52791085  8.15680228  3.13144994
 


--------------------------------------------------------------------------------------------------------


 k-point  1 :   0.0000 0.0000 0.0000  plane waves:   20787
 k-point  2 :   0.0000 0.0000 0.0000  plane waves:   20787
 k-point  3 :   0.1667 0.0000 0.0000  plane waves:   20794
 k-point  4 :   0.3333 0.0000 0.0000  plane waves:   20798
 k-point  5 :   0.5000 0.0000 0.0000  plane waves:   20754
 k-point  6 :   0.5000 0.0000 0.0000  plane waves:   20754
 k-point  7 :   0.5000 0.1667 0.0000  plane waves:   20790
 k-point  8 :   0.5000 0.3333 0.0000  plane waves:   20796
 k-point  9 :   0.5000 0.5000 0.0000  plane waves:   20812
 k-point 10 :   0.5000 0.5000 0.0000  plane waves:   20812
 k-point 11 :   0.3333 0.5000 0.0000  plane waves:   20814
 k-point 12 :   0.1667 0.5000 0.0000  plane waves:   20768
 k-point 13 :   0.0000 0.5000 0.0000  plane waves:   20738
 k-point 14 :   0.0000 0.5000 0.0000  plane waves:   20738
 k-point 15 :   0.0000 0.3333 0.0000  plane waves:   20746
 k-point 16 :   0.0000 0.1667 0.0000  plane waves:   20787
 k-point 17 :   0.0000 0.0000 0.0000  plane waves:   20787
 k-point 18 :   0.0000 0.0000 0.0000  plane waves:   20787
 k-point 19 :   0.0000 0.0000 0.2500  plane waves:   20781
 k-point 20 :   0.0000 0.0000 0.5000  plane waves:   20716
 k-point 21 :   0.0000 0.0000 0.5000  plane waves:   20716
 k-point 22 :   0.1667 0.0000 0.5000  plane waves:   20734
 k-point 23 :   0.3333 0.0000 0.5000  plane waves:   20812
 k-point 24 :   0.5000 0.0000 0.5000  plane waves:   20804
 k-point 25 :   0.5000 0.0000 0.5000  plane waves:   20804
 k-point 26 :   0.5000 0.1667 0.5000  plane waves:   20804
 k-point 27 :   0.5000 0.3333 0.5000  plane waves:   20792
 k-point 28 :   0.5000 0.5000 0.5000  plane waves:   20816
 k-point 29 :   0.5000 0.5000 0.5000  plane waves:   20816
 k-point 30 :   0.3333 0.5000 0.5000  plane waves:   20828
 k-point 31 :   0.1667 0.5000 0.5000  plane waves:   20768
 k-point 32 :   0.0000 0.5000 0.5000  plane waves:   20728
 k-point 33 :   0.0000 0.5000 0.5000  plane waves:   20728
 k-point 34 :   0.0000 0.3333 0.5000  plane waves:   20760
 k-point 35 :   0.0000 0.1667 0.5000  plane waves:   20782
 k-point 36 :   0.0000 0.0000 0.5000  plane waves:   20716
 k-point 37 :   0.5000 0.0000 0.0000  plane waves:   20754
 k-point 38 :   0.5000 0.0000 0.2500  plane waves:   20804
 k-point 39 :   0.5000 0.0000 0.5000  plane waves:   20804
 k-point 40 :   0.0000 0.5000 0.0000  plane waves:   20738
 k-point 41 :   0.0000 0.5000 0.2500  plane waves:   20730
 k-point 42 :   0.0000 0.5000 0.5000  plane waves:   20728
 k-point 43 :   0.5000 0.5000 0.0000  plane waves:   20812
 k-point 44 :   0.5000 0.5000 0.2500  plane waves:   20816
 k-point 45 :   0.5000 0.5000 0.5000  plane waves:   20816

 maximum and minimum number of plane-waves per node :     20828    20716

 maximum number of plane-waves:     20828
 maximum index in each direction: 
   IXMAX=   15   IYMAX=   15   IZMAX=   21
   IXMIN=  -15   IYMIN=  -15   IZMIN=  -22


 serial   3D FFT for wavefunctions
 parallel 3D FFT for charge:
    minimum data exchange during FFTs selected (reduces bandwidth)

 
 Radii for the augmentation spheres in the non-local exchange
 for species   1 augmentation radius   1.484 (default was   1.188)
       energy cutoff for augmentation   1800.0
 for species   2 augmentation radius   1.443 (default was   1.154)
       energy cutoff for augmentation   1800.0
 for species   3 augmentation radius   1.414 (default was   1.131)
       energy cutoff for augmentation   1800.0
 Maximum index for augmentation-charges in exchange         2310
  SETUP_FOCK is finished

 total amount of memory used by VASP MPI-rank0   101582. kBytes
=======================================================================

   base      :      30000. kBytes
   nonlr-proj:      15815. kBytes
   fftplans  :       1768. kBytes
   grid      :       7357. kBytes
   one-center:        311. kBytes
   HF        :        194. kBytes
   wavefun   :      46137. kBytes
 
     INWAV:  cpu time   18.0992: real time   18.1607
 initial charge density was supplied:
 number of electron     175.9999998 magnetization 
 keeping initial charge density in first step


--------------------------------------------------------------------------------------------------------


 Maximum index for non-local projection operator         2576
 Maximum index for augmentation-charges         2033 (set IRDMAX)


--------------------------------------------------------------------------------------------------------


 First call to EWALD:  gamma=   0.180
 Maximum number of real-space cells 3x 3x 2
 Maximum number of reciprocal cells 2x 3x 3

    FEWALD:  cpu time    0.0030: real time    0.0051


--------------------------------------- Iteration      1(   1)  ---------------------------------------


    POTLOK:  cpu time    0.1910: real time    0.3008
    SETDIJ:  cpu time    0.2580: real time    0.2698
    TRIAL :  cpu time  441.0589: real time  443.7075
    CORREC:  cpu time  442.9467: real time  445.1375
    --------------------------------------------
      LOOP:  cpu time  884.4985: real time  889.5412

 eigenvalue-minimisations  :     0
 total energy-change (2. order) :-0.6521497E+02  (-0.2936076E-02)
 number of electron     175.9999998 magnetization 
 augmentation part      175.9999998 magnetization 

 Free energy of the ion-electron system (eV)
  ---------------------------------------------------
  alpha Z        PSCENC =       274.57589780
  Ewald energy   TEWEN  =     -8733.92648156
  -Hartree energ DENC   =     -3543.20239058
  -exchange      EXHF   =       318.86355116
  -V(xc)+E(xc)   XCENC  =        13.63338186
  PAW double counting   =     15592.28886958   -15232.74816436
  entropy T*S    EENTRO =        -0.00000000
  eigenvalues    EBANDS =     -1397.03626069
  atomic energy  EATOM  =     12642.33662683
  ---------------------------------------------------
  free energy    TOTEN  =       -65.21496996 eV

  energy without entropy =      -65.21496996  energy(sigma->0) =      -65.21496996
  exchange ACFDT corr.  =        -0.00000000  see jH, gK, PRB 81, 115126


--------------------------------------------------------------------------------------------------------




--------------------------------------- Iteration      1(   2)  ---------------------------------------


    TRIAL :  cpu time  440.1031: real time  441.3105
    CORREC:  cpu time  433.7461: real time  435.3887
    --------------------------------------------
      LOOP:  cpu time  873.8642: real time  876.7282

 eigenvalue-minimisations  :     0
 total energy-change (2. order) :-0.2509154E-02  (-0.1421637E-02)
 number of electron     175.9999998 magnetization 
 augmentation part      175.9999998 magnetization 

 Free energy of the ion-electron system (eV)
  ---------------------------------------------------
  alpha Z        PSCENC =       274.57589780
  Ewald energy   TEWEN  =     -8733.92648156
  -Hartree energ DENC   =     -3543.20239058
  -exchange      EXHF   =       318.93910022
  -V(xc)+E(xc)   XCENC  =        13.63338186
  PAW double counting   =     15592.28886958   -15232.74816436
  entropy T*S    EENTRO =        -0.00000000
  eigenvalues    EBANDS =     -1397.11431890
  atomic energy  EATOM  =     12642.33662683
  ---------------------------------------------------
  free energy    TOTEN  =       -65.21747912 eV

  energy without entropy =      -65.21747912  energy(sigma->0) =      -65.21747912
  exchange ACFDT corr.  =        -0.00000000  see jH, gK, PRB 81, 115126


--------------------------------------------------------------------------------------------------------




--------------------------------------- Iteration      1(   3)  ---------------------------------------


    TRIAL :  cpu time  440.2471: real time  441.4413
    CORREC:  cpu time  434.0390: real time  435.2362
    --------------------------------------------
      LOOP:  cpu time  874.2911: real time  876.6930

 eigenvalue-minimisations  :     0
 total energy-change (2. order) :-0.1348307E-02  (-0.1150407E-02)
 number of electron     175.9999998 magnetization 
 augmentation part      175.9999998 magnetization 

 Free energy of the ion-electron system (eV)
  ---------------------------------------------------
  alpha Z        PSCENC =       274.57589780
  Ewald energy   TEWEN  =     -8733.92648156
  -Hartree energ DENC   =     -3543.20239058
  -exchange      EXHF   =       318.97340740
  -V(xc)+E(xc)   XCENC  =        13.63338186
  PAW double counting   =     15592.28886958   -15232.74816436
  entropy T*S    EENTRO =        -0.00000000
  eigenvalues    EBANDS =     -1397.14997440
  atomic energy  EATOM  =     12642.33662683
  ---------------------------------------------------
  free energy    TOTEN  =       -65.21882743 eV

  energy without entropy =      -65.21882743  energy(sigma->0) =      -65.21882743
  exchange ACFDT corr.  =        -0.00000000  see jH, gK, PRB 81, 115126


--------------------------------------------------------------------------------------------------------




--------------------------------------- Iteration      1(   4)  ---------------------------------------


    TRIAL :  cpu time  440.2011: real time  441.4266
    CORREC:  cpu time  434.1050: real time  435.2928
    --------------------------------------------
      LOOP:  cpu time  874.3121: real time  876.7337

 eigenvalue-minimisations  :     0
 total energy-change (2. order) :-0.1108578E-02  (-0.5250625E-03)
 number of electron     175.9999998 magnetization 
 augmentation part      175.9999998 magnetization 

 Free energy of the ion-electron system (eV)
  ---------------------------------------------------
  alpha Z        PSCENC =       274.57589780
  Ewald energy   TEWEN  =     -8733.92648156
  -Hartree energ DENC   =     -3543.20239058
  -exchange      EXHF   =       318.98823453
  -V(xc)+E(xc)   XCENC  =        13.63338186
  PAW double counting   =     15592.28886958   -15232.74816436
  entropy T*S    EENTRO =        -0.00000000
  eigenvalues    EBANDS =     -1397.16591011
  atomic energy  EATOM  =     12642.33662683
  ---------------------------------------------------
  free energy    TOTEN  =       -65.21993600 eV

  energy without entropy =      -65.21993600  energy(sigma->0) =      -65.21993600
  exchange ACFDT corr.  =        -0.00000000  see jH, gK, PRB 81, 115126


--------------------------------------------------------------------------------------------------------




--------------------------------------- Iteration      1(   5)  ---------------------------------------


    TRIAL :  cpu time  440.4660: real time  441.6597
    CORREC:  cpu time  434.3340: real time  435.5120
    --------------------------------------------
      LOOP:  cpu time  874.8110: real time  877.1876

 eigenvalue-minimisations  :     0
 total energy-change (2. order) :-0.5474331E-03  (-0.3008039E-03)
 number of electron     175.9999998 magnetization 
 augmentation part      175.9999998 magnetization 

 Free energy of the ion-electron system (eV)
  ---------------------------------------------------
  alpha Z        PSCENC =       274.57589780
  Ewald energy   TEWEN  =     -8733.92648156
  -Hartree energ DENC   =     -3543.20239058
  -exchange      EXHF   =       318.99993830
  -V(xc)+E(xc)   XCENC  =        13.63338186
  PAW double counting   =     15592.28886958   -15232.74816436
  entropy T*S    EENTRO =        -0.00000000
  eigenvalues    EBANDS =     -1397.17816130
  atomic energy  EATOM  =     12642.33662683
  ---------------------------------------------------
  free energy    TOTEN  =       -65.22048344 eV

  energy without entropy =      -65.22048344  energy(sigma->0) =      -65.22048344
  exchange ACFDT corr.  =        -0.00000000  see jH, gK, PRB 81, 115126


--------------------------------------------------------------------------------------------------------




--------------------------------------- Iteration      1(   6)  ---------------------------------------


    TRIAL :  cpu time  440.0861: real time  441.3133
    CORREC:  cpu time  434.3190: real time  435.5104
    --------------------------------------------
      LOOP:  cpu time  874.4161: real time  876.8581

 eigenvalue-minimisations  :     0
 total energy-change (2. order) :-0.3163092E-03  (-0.1996122E-03)
 number of electron     175.9999998 magnetization 
 augmentation part      175.9999998 magnetization 

 Free energy of the ion-electron system (eV)
  ---------------------------------------------------
  alpha Z        PSCENC =       274.57589780
  Ewald energy   TEWEN  =     -8733.92648156
  -Hartree energ DENC   =     -3543.20239058
  -exchange      EXHF   =       319.00579354
  -V(xc)+E(xc)   XCENC  =        13.63338186
  PAW double counting   =     15592.28886958   -15232.74816436
  entropy T*S    EENTRO =        -0.00000000
  eigenvalues    EBANDS =     -1397.18433286
  atomic energy  EATOM  =     12642.33662683
  ---------------------------------------------------
  free energy    TOTEN  =       -65.22079975 eV

  energy without entropy =      -65.22079975  energy(sigma->0) =      -65.22079975
  exchange ACFDT corr.  =        -0.00000000  see jH, gK, PRB 81, 115126


--------------------------------------------------------------------------------------------------------




--------------------------------------- Iteration      1(   7)  ---------------------------------------


    TRIAL :  cpu time  440.2491: real time  441.4314
    CORREC:  cpu time  434.4680: real time  435.5166
    --------------------------------------------
      LOOP:  cpu time  874.7210: real time  876.9619

 eigenvalue-minimisations  :     0
 total energy-change (2. order) :-0.1393856E-03  (-0.1649502E-03)
 number of electron     175.9999998 magnetization 
 augmentation part      175.9999998 magnetization 

 Free energy of the ion-electron system (eV)
  ---------------------------------------------------
  alpha Z        PSCENC =       274.57589780
  Ewald energy   TEWEN  =     -8733.92648156
  -Hartree energ DENC   =     -3543.20239058
  -exchange      EXHF   =       318.99775076
  -V(xc)+E(xc)   XCENC  =        13.63338186
  PAW double counting   =     15592.28886958   -15232.74816436
  entropy T*S    EENTRO =        -0.00000000
  eigenvalues    EBANDS =     -1397.17642946
  atomic energy  EATOM  =     12642.33662683
  ---------------------------------------------------
  free energy    TOTEN  =       -65.22093913 eV

  energy without entropy =      -65.22093913  energy(sigma->0) =      -65.22093913
  exchange ACFDT corr.  =        -0.00000000  see jH, gK, PRB 81, 115126


--------------------------------------------------------------------------------------------------------




--------------------------------------- Iteration      1(   8)  ---------------------------------------


    TRIAL :  cpu time  440.2781: real time  441.3237
    CORREC:  cpu time  434.6619: real time  435.7075
    --------------------------------------------
      LOOP:  cpu time  874.9480: real time  877.0477

 eigenvalue-minimisations  :     0
 total energy-change (2. order) :-0.1653274E-03  (-0.4644958E-04)
 number of electron     175.9999998 magnetization 
 augmentation part      175.9999998 magnetization 

 Free energy of the ion-electron system (eV)
  ---------------------------------------------------
  alpha Z        PSCENC =       274.57589780
  Ewald energy   TEWEN  =     -8733.92648156
  -Hartree energ DENC   =     -3543.20239058
  -exchange      EXHF   =       319.00313019
  -V(xc)+E(xc)   XCENC  =        13.63338186
  PAW double counting   =     15592.28886958   -15232.74816436
  entropy T*S    EENTRO =        -0.00000000
  eigenvalues    EBANDS =     -1397.18197421
  atomic energy  EATOM  =     12642.33662683
  ---------------------------------------------------
  free energy    TOTEN  =       -65.22110446 eV

  energy without entropy =      -65.22110446  energy(sigma->0) =      -65.22110446
  exchange ACFDT corr.  =        -0.00000000  see jH, gK, PRB 81, 115126


--------------------------------------------------------------------------------------------------------




--------------------------------------- Iteration      1(   9)  ---------------------------------------


    TRIAL :  cpu time  440.5440: real time  441.5894
    CORREC:  cpu time  434.5199: real time  435.5571
    --------------------------------------------
      LOOP:  cpu time  875.0680: real time  877.1620

 eigenvalue-minimisations  :     0
 total energy-change (2. order) :-0.4641969E-04  (-0.1414237E-04)
 number of electron     175.9999998 magnetization 
 augmentation part      175.9999998 magnetization 

 Free energy of the ion-electron system (eV)
  ---------------------------------------------------
  alpha Z        PSCENC =       274.57589780
  Ewald energy   TEWEN  =     -8733.92648156
  -Hartree energ DENC   =     -3543.20239058
  -exchange      EXHF   =       318.99867159
  -V(xc)+E(xc)   XCENC  =        13.63338186
  PAW double counting   =     15592.28886958   -15232.74816436
  entropy T*S    EENTRO =        -0.00000000
  eigenvalues    EBANDS =     -1397.17756204
  atomic energy  EATOM  =     12642.33662683
  ---------------------------------------------------
  free energy    TOTEN  =       -65.22115088 eV

  energy without entropy =      -65.22115088  energy(sigma->0) =      -65.22115088
  exchange ACFDT corr.  =        -0.00000000  see jH, gK, PRB 81, 115126


--------------------------------------------------------------------------------------------------------




--------------------------------------- Iteration      1(  10)  ---------------------------------------


    TRIAL :  cpu time  440.3641: real time  441.4103
    CORREC:  cpu time  434.5009: real time  435.5368
    --------------------------------------------
      LOOP:  cpu time  874.8720: real time  876.9614

 eigenvalue-minimisations  :     0
 total energy-change (2. order) :-0.1405002E-04  (-0.5947305E-05)
 number of electron     175.9999998 magnetization 
 augmentation part      175.9999998 magnetization 

 Free energy of the ion-electron system (eV)
  ---------------------------------------------------
  alpha Z        PSCENC =       274.57589780
  Ewald energy   TEWEN  =     -8733.92648156
  -Hartree energ DENC   =     -3543.20239058
  -exchange      EXHF   =       318.99841010
  -V(xc)+E(xc)   XCENC  =        13.63338186
  PAW double counting   =     15592.28886958   -15232.74816436
  entropy T*S    EENTRO =        -0.00000000
  eigenvalues    EBANDS =     -1397.17731460
  atomic energy  EATOM  =     12642.33662683
  ---------------------------------------------------
  free energy    TOTEN  =       -65.22116493 eV

  energy without entropy =      -65.22116493  energy(sigma->0) =      -65.22116493
  exchange ACFDT corr.  =        -0.00000000  see jH, gK, PRB 81, 115126


--------------------------------------------------------------------------------------------------------




--------------------------------------- Iteration      1(  11)  ---------------------------------------


    TRIAL :  cpu time  440.2801: real time  441.3312
    CORREC:  cpu time  433.7621: real time  434.7945
    --------------------------------------------
      LOOP:  cpu time  874.0521: real time  876.1413

 eigenvalue-minimisations  :     0
 total energy-change (2. order) :-0.5920665E-05  (-0.1707486E-05)
 number of electron     175.9999998 magnetization 
 augmentation part      175.9999998 magnetization 

 Free energy of the ion-electron system (eV)
  ---------------------------------------------------
  alpha Z        PSCENC =       274.57589780
  Ewald energy   TEWEN  =     -8733.92648156
  -Hartree energ DENC   =     -3543.20239058
  -exchange      EXHF   =       318.99737171
  -V(xc)+E(xc)   XCENC  =        13.63338186
  PAW double counting   =     15592.28886958   -15232.74816436
  entropy T*S    EENTRO =        -0.00000000
  eigenvalues    EBANDS =     -1397.17628213
  atomic energy  EATOM  =     12642.33662683
  ---------------------------------------------------
  free energy    TOTEN  =       -65.22117085 eV

  energy without entropy =      -65.22117085  energy(sigma->0) =      -65.22117085
  exchange ACFDT corr.  =        -0.00000000  see jH, gK, PRB 81, 115126


--------------------------------------------------------------------------------------------------------




--------------------------------------- Iteration      1(  12)  ---------------------------------------


    TRIAL :  cpu time  440.5940: real time  441.6358
    CORREC:  cpu time  434.6199: real time  435.6502
    --------------------------------------------
      LOOP:  cpu time  875.2259: real time  877.3017

 eigenvalue-minimisations  :     0
 total energy-change (2. order) :-0.1706954E-05  (-0.5305831E-06)
 number of electron     175.9999998 magnetization 
 augmentation part      175.9999998 magnetization 

 Free energy of the ion-electron system (eV)
  ---------------------------------------------------
  alpha Z        PSCENC =       274.57589780
  Ewald energy   TEWEN  =     -8733.92648156
  -Hartree energ DENC   =     -3543.20239058
  -exchange      EXHF   =       318.99659473
  -V(xc)+E(xc)   XCENC  =        13.63338186
  PAW double counting   =     15592.28886958   -15232.74816436
  entropy T*S    EENTRO =        -0.00000000
  eigenvalues    EBANDS =     -1397.17550685
  atomic energy  EATOM  =     12642.33662683
  ---------------------------------------------------
  free energy    TOTEN  =       -65.22117256 eV

  energy without entropy =      -65.22117256  energy(sigma->0) =      -65.22117256
  exchange ACFDT corr.  =        -0.00000000  see jH, gK, PRB 81, 115126


--------------------------------------------------------------------------------------------------------




--------------------------------------- Iteration      1(  13)  ---------------------------------------


    TRIAL :  cpu time  446.1982: real time  447.2967
    CORREC:  cpu time  434.5699: real time  435.6138
    EDDIAG:  cpu time  432.4343: real time  433.5357
    --------------------------------------------
      LOOP:  cpu time 1313.2054: real time 1316.4605

 eigenvalue-minimisations  :     0
 total energy-change (2. order) :-0.5303518E-06  (-0.1616696E-06)
 number of electron     175.9999998 magnetization 
 augmentation part      175.9999998 magnetization 

 Free energy of the ion-electron system (eV)
  ---------------------------------------------------
  alpha Z        PSCENC =       274.57589780
  Ewald energy   TEWEN  =     -8733.92648156
  -Hartree energ DENC   =     -3543.20239058
  -exchange      EXHF   =       318.99641799
  -V(xc)+E(xc)   XCENC  =        13.63338186
  PAW double counting   =     15592.28886958   -15232.74816436
  entropy T*S    EENTRO =        -0.00000000
  eigenvalues    EBANDS =     -1397.17540130
  atomic energy  EATOM  =     12642.33662683
  ---------------------------------------------------
  free energy    TOTEN  =       -65.22117309 eV

  energy without entropy =      -65.22117309  energy(sigma->0) =      -65.22117309
  exchange ACFDT corr.  =        -0.00000000  see jH, gK, PRB 81, 115126


--------------------------------------------------------------------------------------------------------


  average scaling for gradient   1.0427


 average (electrostatic) potential at core
  the test charge radii are     1.1875  1.1541  1.1312
  (the norm of the test charge is              1.0000)
       1 -89.6025       2 -89.6025       3 -89.6025       4 -89.6025       5 -89.6025
       6 -89.6025       7 -89.6025       8 -89.6025       9 -89.5768      10 -89.5768
      11 -89.5768      12 -89.5768      13 -89.7922      14 -89.7923      15 -89.7922
      16 -89.7923      17 -45.5508      18 -45.5508      19 -45.5508      20 -45.5508
 
 
 
 E-fermi :   1.3381     XC(G=0):  -6.3178     alpha+bet : -7.7161


 k-point     1 :       0.0000    0.0000    0.0000
  band No.  band energies     occupation 
      1     -21.1939      2.00000
      2     -21.1933      2.00000
      3     -21.1921      2.00000
      4     -21.1916      2.00000
      5     -17.0779      2.00000
      6     -17.0768      2.00000
      7     -17.0767      2.00000
      8     -17.0726      2.00000
      9     -17.0686      2.00000
     10     -17.0631      2.00000
     11     -17.0610      2.00000
     12     -17.0609      2.00000
     13     -17.0199      2.00000
     14     -17.0196      2.00000
     15     -17.0191      2.00000
     16     -17.0187      2.00000
     17     -17.0144      2.00000
     18     -17.0142      2.00000
     19     -17.0138      2.00000
     20     -17.0136      2.00000
     21     -17.0099      2.00000
     22     -17.0096      2.00000
     23     -17.0087      2.00000
     24     -17.0085      2.00000
     25     -12.0090      2.00000
     26     -11.8203      2.00000
     27     -11.5388      2.00000
     28     -11.5104      2.00000
     29     -11.5080      2.00000
     30     -11.4934      2.00000
     31     -11.4887      2.00000
     32     -11.4763      2.00000
     33     -11.4693      2.00000
     34     -11.2899      2.00000
     35     -11.2788      2.00000
     36     -11.2775      2.00000
     37      -7.6544      2.00000
     38      -7.1720      2.00000
     39      -7.0738      2.00000
     40      -7.0701      2.00000
     41      -7.0595      2.00000
     42      -7.0594      2.00000
     43      -7.0559      2.00000
     44      -7.0502      2.00000
     45      -7.0475      2.00000
     46      -7.0437      2.00000
     47      -7.0285      2.00000
     48      -7.0098      2.00000
     49      -7.0084      2.00000
     50      -6.9718      2.00000
     51      -6.5757      2.00000
     52      -6.0313      2.00000
     53      -2.4110      2.00000
     54      -2.4079      2.00000
     55      -2.3196      2.00000
     56      -2.2602      2.00000
     57      -2.1437      2.00000
     58      -2.0791      2.00000
     59      -1.2920      2.00000
     60      -1.0411      2.00000
     61      -1.0306      2.00000
     62      -1.0030      2.00000
     63      -0.9882      2.00000
     64      -0.9267      2.00000
     65      -0.6731      2.00000
     66      -0.5250      2.00000
     67      -0.5089      2.00000
     68      -0.4990      2.00000
     69      -0.3979      2.00000
     70      -0.3875      2.00000
     71      -0.3849      2.00000
     72      -0.3591      2.00000
     73      -0.3543      2.00000
     74      -0.2920      2.00000
     75      -0.2796      2.00000
     76      -0.2782      2.00000
     77      -0.2750      2.00000
     78      -0.1803      2.00000
     79      -0.0695      2.00000
     80      -0.0671      2.00000
     81      -0.0057      2.00000
     82       0.0136      2.00000
     83       0.0213      2.00000
     84       0.0628      2.00000
     85       0.2800      2.00000
     86       0.3056      2.00000
     87       0.6316      2.00000
     88       1.1083      2.00000
     89       3.6732      0.00000
     90       3.7076      0.00000
     91       3.8015      0.00000
     92       4.0186      0.00000
     93       4.1615      0.00000
     94       4.3267      0.00000
     95       5.8389      0.00000
     96       6.5334      0.00000
     97       6.5406      0.00000
     98       6.7547      0.00000
     99       6.7838      0.00000
    100       6.8812      0.00000
    101       6.8890      0.00000
    102       6.9257      0.00000
    103       7.0319      0.00000
    104       7.0499      0.00000
    105       7.1098      0.00000
    106       7.1270      0.00000
    107       7.1410      0.00000
    108       7.4016      0.00000
    109       7.4409      0.00000
    110       7.4632      0.00000
    111       7.6141      0.00000
    112       7.6174      0.00000
    113       7.8434      0.00000
    114       7.8857      0.00000
    115       7.9459      0.00000
    116       8.0233      0.00000
    117       8.1932      0.00000
    118       8.2276      0.00000
    119       8.3037      0.00000
    120       8.4159      0.00000
    121       8.4885      0.00000
    122       8.6110      0.00000
    123       8.6763      0.00000
    124       8.7033      0.00000
    125       8.7681      0.00000
    126       8.7915      0.00000
    127       8.8078      0.00000
    128       9.0254      0.00000
    129       9.0569      0.00000
    130       9.1440      0.00000
    131       9.1868      0.00000
    132       9.4446      0.00000
    133       9.4759      0.00000
    134       9.5401      0.00000
    135       9.6552      0.00000
    136       9.7429      0.00000
    137       9.7998      0.00000
    138       9.9512      0.00000
    139      10.0336      0.00000
    140      10.3716      0.00000
    141      10.4644      0.00000
    142      10.4713      0.00000
    143      10.5393      0.00000
    144      10.6069      0.00000
    145      10.7342      0.00000
    146      10.7558      0.00000
    147      10.8969      0.00000
    148      10.9036      0.00000
    149      10.9471      0.00000
    150      11.0041      0.00000
    151      11.0884      0.00000
    152      11.1372      0.00000
    153      11.1601      0.00000
    154      11.2787      0.00000
    155      11.4874      0.00000
    156      11.7700      0.00000
    157      11.8753      0.00000
    158      11.9468      0.00000
    159      12.0809      0.00000
    160      12.0939      0.00000
    161      12.1648      0.00000
    162      12.2836      0.00000
    163      12.4516      0.00000
    164      12.5479      0.00000
    165      12.5877      0.00000
    166      12.7132      0.00000
    167      12.7485      0.00000
    168      12.7945      0.00000
    169      12.8163      0.00000
    170      12.9447      0.00000
    171      13.0164      0.00000
    172      13.3502      0.00000
    173      13.3505      0.00000
    174      13.4006      0.00000
    175      13.4904      0.00000
    176      13.5685      0.00000
    177      13.5850      0.00000
    178      13.6151      0.00000
    179      13.6916      0.00000
    180      13.8439      0.00000
    181      13.8569      0.00000
    182      13.9889      0.00000
    183      14.0759      0.00000
    184      14.1957      0.00000
    185      14.2603      0.00000
    186      14.2713      0.00000
    187      14.4080      0.00000
    188      14.4722      0.00000
    189      14.4884      0.00000
    190      14.5495      0.00000
    191      14.5964      0.00000
    192      14.5968      0.00000
    193      14.6754      0.00000
    194      14.8918      0.00000
    195      14.9085      0.00000
    196      14.9254      0.00000
    197      15.0016      0.00000
    198      15.0777      0.00000
    199      15.1047      0.00000
    200      15.1770      0.00000
    201      15.1869      0.00000
    202      15.2028      0.00000
    203      15.2803      0.00000
    204      15.2953      0.00000
    205      15.4288      0.00000
    206      15.4938      0.00000
    207      15.6060      0.00000
    208      15.6635      0.00000
    209      15.8017      0.00000
    210      16.0132      0.00000
    211      16.0382      0.00000
    212      16.0439      0.00000
    213      16.0469      0.00000
    214      16.0777      0.00000
    215      16.1220      0.00000
    216      16.1943      0.00000
    217      16.2695      0.00000
    218      16.2890      0.00000
    219      16.5002      0.00000
    220      16.5629      0.00000
    221      16.6380      0.00000
    222      16.7029      0.00000
    223      16.7617      0.00000
    224      16.8313      0.00000
    225      16.8741      0.00000
    226      16.9663      0.00000
    227      16.9874      0.00000
    228      17.0694      0.00000
    229      17.1201      0.00000
    230      17.2176      0.00000
    231      17.2829      0.00000
    232      17.4391      0.00000
    233      17.4572      0.00000
    234      17.5513      0.00000
    235      17.8041      0.00000
    236      17.8316      0.00000
    237      18.0324      0.00000
    238      18.1654      0.00000
    239      18.4121      0.00000
    240      18.6624      0.00000

 k-point     2 :       0.0000    0.0000    0.0000
  band No.  band energies     occupation 
      1     -21.1939      2.00000
      2     -21.1933      2.00000
      3     -21.1921      2.00000
      4     -21.1916      2.00000
      5     -17.0779      2.00000
      6     -17.0768      2.00000
      7     -17.0767      2.00000
      8     -17.0726      2.00000
      9     -17.0686      2.00000
     10     -17.0631      2.00000
     11     -17.0610      2.00000
     12     -17.0609      2.00000
     13     -17.0199      2.00000
     14     -17.0196      2.00000
     15     -17.0191      2.00000
     16     -17.0187      2.00000
     17     -17.0144      2.00000
     18     -17.0142      2.00000
     19     -17.0138      2.00000
     20     -17.0136      2.00000
     21     -17.0099      2.00000
     22     -17.0096      2.00000
     23     -17.0087      2.00000
     24     -17.0085      2.00000
     25     -12.0090      2.00000
     26     -11.8203      2.00000
     27     -11.5388      2.00000
     28     -11.5104      2.00000
     29     -11.5080      2.00000
     30     -11.4934      2.00000
     31     -11.4887      2.00000
     32     -11.4763      2.00000
     33     -11.4693      2.00000
     34     -11.2899      2.00000
     35     -11.2788      2.00000
     36     -11.2775      2.00000
     37      -7.6544      2.00000
     38      -7.1720      2.00000
     39      -7.0738      2.00000
     40      -7.0701      2.00000
     41      -7.0595      2.00000
     42      -7.0594      2.00000
     43      -7.0559      2.00000
     44      -7.0502      2.00000
     45      -7.0475      2.00000
     46      -7.0437      2.00000
     47      -7.0285      2.00000
     48      -7.0098      2.00000
     49      -7.0084      2.00000
     50      -6.9718      2.00000
     51      -6.5757      2.00000
     52      -6.0313      2.00000
     53      -2.4110      2.00000
     54      -2.4079      2.00000
     55      -2.3196      2.00000
     56      -2.2602      2.00000
     57      -2.1437      2.00000
     58      -2.0791      2.00000
     59      -1.2920      2.00000
     60      -1.0411      2.00000
     61      -1.0306      2.00000
     62      -1.0030      2.00000
     63      -0.9882      2.00000
     64      -0.9267      2.00000
     65      -0.6731      2.00000
     66      -0.5250      2.00000
     67      -0.5089      2.00000
     68      -0.4990      2.00000
     69      -0.3979      2.00000
     70      -0.3875      2.00000
     71      -0.3849      2.00000
     72      -0.3591      2.00000
     73      -0.3543      2.00000
     74      -0.2920      2.00000
     75      -0.2796      2.00000
     76      -0.2782      2.00000
     77      -0.2749      2.00000
     78      -0.1802      2.00000
     79      -0.0695      2.00000
     80      -0.0671      2.00000
     81      -0.0057      2.00000
     82       0.0136      2.00000
     83       0.0213      2.00000
     84       0.0628      2.00000
     85       0.2800      2.00000
     86       0.3056      2.00000
     87       0.6316      2.00000
     88       1.1083      2.00000
     89       3.6732      0.00000
     90       3.7076      0.00000
     91       3.8015      0.00000
     92       4.0186      0.00000
     93       4.1615      0.00000
     94       4.3267      0.00000
     95       5.8389      0.00000
     96       6.5334      0.00000
     97       6.5406      0.00000
     98       6.7547      0.00000
     99       6.7838      0.00000
    100       6.8812      0.00000
    101       6.8890      0.00000
    102       6.9257      0.00000
    103       7.0319      0.00000
    104       7.0499      0.00000
    105       7.1097      0.00000
    106       7.1270      0.00000
    107       7.1410      0.00000
    108       7.4016      0.00000
    109       7.4409      0.00000
    110       7.4632      0.00000
    111       7.6145      0.00000
    112       7.6170      0.00000
    113       7.8434      0.00000
    114       7.8858      0.00000
    115       7.9460      0.00000
    116       8.0233      0.00000
    117       8.1934      0.00000
[...]
     27     -11.7225      2.00000
     28     -11.7225      2.00000
     29     -11.5178      2.00000
     30     -11.5178      2.00000
     31     -11.5178      2.00000
     32     -11.5178      2.00000
     33     -11.3239      2.00000
     34     -11.3239      2.00000
     35     -11.3239      2.00000
     36     -11.3239      2.00000
     37      -7.0840      2.00000
     38      -7.0840      2.00000
     39      -7.0840      2.00000
     40      -7.0840      2.00000
     41      -7.0480      2.00000
     42      -7.0480      2.00000
     43      -7.0480      2.00000
     44      -7.0480      2.00000
     45      -7.0057      2.00000
     46      -7.0057      2.00000
     47      -7.0057      2.00000
     48      -7.0057      2.00000
     49      -6.8148      2.00000
     50      -6.8148      2.00000
     51      -6.8148      2.00000
     52      -6.8148      2.00000
     53      -2.1482      2.00000
     54      -2.1482      2.00000
     55      -2.1482      2.00000
     56      -2.1482      2.00000
     57      -1.5133      2.00000
     58      -1.5133      2.00000
     59      -1.5133      2.00000
     60      -1.5133      2.00000
     61      -1.0869      2.00000
     62      -1.0868      2.00000
     63      -1.0868      2.00000
     64      -1.0868      2.00000
     65      -0.7303      2.00000
     66      -0.7303      2.00000
     67      -0.7303      2.00000
     68      -0.7303      2.00000
     69      -0.3471      2.00000
     70      -0.3471      2.00000
     71      -0.3471      2.00000
     72      -0.3471      2.00000
     73      -0.2837      2.00000
     74      -0.2837      2.00000
     75      -0.2837      2.00000
     76      -0.2837      2.00000
     77      -0.1782      2.00000
     78      -0.1782      2.00000
     79      -0.1782      2.00000
     80      -0.1782      2.00000
     81      -0.0099      2.00000
     82      -0.0099      2.00000
     83      -0.0099      2.00000
     84      -0.0099      2.00000
     85       0.3436      2.00000
     86       0.3436      2.00000
     87       0.3436      2.00000
     88       0.3436      2.00000
     89       4.1730      0.00000
     90       4.1730      0.00000
     91       4.1730      0.00000
     92       4.1730      0.00000
     93       5.4001      0.00000
     94       5.4001      0.00000
     95       5.4001      0.00000
     96       5.4001      0.00000
     97       6.5389      0.00000
     98       6.5389      0.00000
     99       6.5389      0.00000
    100       6.5389      0.00000
    101       7.2845      0.00000
    102       7.2845      0.00000
    103       7.2845      0.00000
    104       7.2845      0.00000
    105       7.3732      0.00000
    106       7.3732      0.00000
    107       7.3732      0.00000
    108       7.3732      0.00000
    109       7.5778      0.00000
    110       7.5778      0.00000
    111       7.5778      0.00000
    112       7.5778      0.00000
    113       7.8850      0.00000
    114       7.8850      0.00000
    115       7.8850      0.00000
    116       7.8850      0.00000
    117       8.2744      0.00000
    118       8.2744      0.00000
    119       8.2744      0.00000
    120       8.2744      0.00000
    121       8.7239      0.00000
    122       8.7239      0.00000
    123       8.7240      0.00000
    124       8.7241      0.00000
    125       8.8337      0.00000
    126       8.8337      0.00000
    127       8.8338      0.00000
    128       8.8339      0.00000
    129       9.1539      0.00000
    130       9.1539      0.00000
    131       9.1539      0.00000
    132       9.1539      0.00000
    133       9.5039      0.00000
    134       9.5039      0.00000
    135       9.5039      0.00000
    136       9.5039      0.00000
    137       9.8985      0.00000
    138       9.8985      0.00000
    139       9.8985      0.00000
    140       9.8985      0.00000
    141      10.3526      0.00000
    142      10.3526      0.00000
    143      10.3526      0.00000
    144      10.3526      0.00000
    145      10.7109      0.00000
    146      10.7109      0.00000
    147      10.7109      0.00000
    148      10.7109      0.00000
    149      11.0579      0.00000
    150      11.0579      0.00000
    151      11.0579      0.00000
    152      11.0579      0.00000
    153      11.5998      0.00000
    154      11.5998      0.00000
    155      11.5998      0.00000
    156      11.5999      0.00000
    157      11.8721      0.00000
    158      11.8721      0.00000
    159      11.8721      0.00000
    160      11.8721      0.00000
    161      12.1411      0.00000
    162      12.1411      0.00000
    163      12.1411      0.00000
    164      12.1412      0.00000
    165      12.4499      0.00000
    166      12.4499      0.00000
    167      12.4500      0.00000
    168      12.4501      0.00000
    169      13.0785      0.00000
    170      13.0786      0.00000
    171      13.0793      0.00000
    172      13.0795      0.00000
    173      13.0856      0.00000
    174      13.0869      0.00000
    175      13.0873      0.00000
    176      13.0884      0.00000
    177      13.2903      0.00000
    178      13.2909      0.00000
    179      13.2910      0.00000
    180      13.2913      0.00000
    181      13.7637      0.00000
    182      13.7640      0.00000
    183      13.7649      0.00000
    184      13.7663      0.00000
    185      14.1311      0.00000
    186      14.1324      0.00000
    187      14.1337      0.00000
    188      14.1381      0.00000
    189      14.3545      0.00000
    190      14.3546      0.00000
    191      14.3573      0.00000
    192      14.3582      0.00000
    193      14.7110      0.00000
    194      14.7117      0.00000
    195      14.7131      0.00000
    196      14.7232      0.00000
    197      14.9249      0.00000
    198      14.9269      0.00000
    199      14.9326      0.00000
    200      14.9375      0.00000
    201      15.2845      0.00000
    202      15.2854      0.00000
    203      15.2927      0.00000
    204      15.3184      0.00000
    205      15.7929      0.00000
    206      15.8003      0.00000
    207      15.8214      0.00000
    208      15.8453      0.00000
    209      15.9175      0.00000
    210      15.9393      0.00000
    211      15.9478      0.00000
    212      15.9732      0.00000
    213      16.1558      0.00000
    214      16.1814      0.00000
    215      16.1854      0.00000
    216      16.3036      0.00000
    217      16.5644      0.00000
    218      16.5864      0.00000
    219      16.6479      0.00000
    220      16.6945      0.00000
    221      16.9536      0.00000
    222      16.9656      0.00000
    223      17.0140      0.00000
    224      17.0378      0.00000
    225      17.0726      0.00000
    226      17.1178      0.00000
    227      17.1900      0.00000
    228      17.2717      0.00000
    229      17.3487      0.00000
    230      17.4275      0.00000
    231      17.5080      0.00000
    232      17.7672      0.00000
    233      17.9558      0.00000
    234      17.9598      0.00000
    235      18.0910      0.00000
    236      18.0923      0.00000
    237      18.2353      0.00000
    238      18.4318      0.00000
    239      18.7027      0.00000
    240      18.9729      0.00000


--------------------------------------------------------------------------------------------------------


 soft charge-density along one line, spin component           1
         0         1         2         3         4         5         6         7         8         9
 total charge-density along one line
 
 pseudopotential strength for first ion, spin component:           1
 62.510  65.950  -0.007  -0.004   0.009  -0.009  -0.006   0.012
 65.950  69.583  -0.007  -0.005   0.009  -0.009  -0.006   0.012
 -0.007  -0.007  16.114   0.001   0.010  21.486   0.001   0.014
 -0.004  -0.005   0.001  16.103   0.000   0.001  21.471   0.000
  0.009   0.009   0.010   0.000  16.113   0.014   0.000  21.485
 -0.009  -0.009  21.486   0.001   0.014  28.657   0.002   0.018
 -0.006  -0.006   0.001  21.471   0.000   0.002  28.638   0.000
  0.012   0.012   0.014   0.000  21.485   0.018   0.000  28.656
  0.015   0.016   0.002   0.000  -0.001   0.003   0.000  -0.002
  0.001   0.001  -0.001  -0.001   0.000  -0.001  -0.002   0.000
 -0.009  -0.009   0.001  -0.001  -0.001   0.001  -0.001  -0.001
  0.000   0.000   0.000   0.002  -0.001   0.000   0.003  -0.001
 -0.000  -0.000   0.001  -0.000   0.002   0.002  -0.000   0.002
 total augmentation occupancy for first ion, spin component:           1
  2.000   0.000   0.000   0.000   0.000   0.000   0.000   0.000   0.000   0.000   0.000   0.000   0.000
  0.000   0.000   0.000   0.000   0.000   0.000   0.000   0.000   0.000   0.000   0.000   0.000   0.000
  0.000   0.000   1.667   0.000   0.000   0.000   0.000   0.000   0.000   0.000   0.000   0.000   0.000
  0.000   0.000   0.000   1.667   0.000   0.000   0.000   0.000   0.000   0.000   0.000   0.000   0.000
  0.000   0.000   0.000   0.000   1.667   0.000   0.000   0.000   0.000   0.000   0.000   0.000   0.000
  0.000   0.000   0.000   0.000   0.000   0.000   0.000   0.000   0.000   0.000   0.000   0.000   0.000
  0.000   0.000   0.000   0.000   0.000   0.000   0.000   0.000   0.000   0.000   0.000   0.000   0.000
  0.000   0.000   0.000   0.000   0.000   0.000   0.000   0.000   0.000   0.000   0.000   0.000   0.000
  0.000   0.000   0.000   0.000   0.000   0.000   0.000   0.000   0.000   0.000   0.000   0.000   0.000
  0.000   0.000   0.000   0.000   0.000   0.000   0.000   0.000   0.000   0.000   0.000   0.000   0.000
  0.000   0.000   0.000   0.000   0.000   0.000   0.000   0.000   0.000   0.000   0.000   0.000   0.000
  0.000   0.000   0.000   0.000   0.000   0.000   0.000   0.000   0.000   0.000   0.000   0.000   0.000
  0.000   0.000   0.000   0.000   0.000   0.000   0.000   0.000   0.000   0.000   0.000   0.000   0.000


------------------------ aborting loop because EDIFF is reached ----------------------------------------


 


 total charge     
 
# of ion       s       p       d       tot
------------------------------------------
    1        1.498   2.940   0.005   4.443
    2        1.498   2.940   0.005   4.443
    3        1.498   2.940   0.005   4.443
    4        1.498   2.940   0.005   4.443
    5        1.498   2.940   0.005   4.443
    6        1.498   2.940   0.005   4.443
    7        1.498   2.940   0.005   4.443
    8        1.498   2.940   0.005   4.443
    9        1.499   2.936   0.005   4.441
   10        1.499   2.936   0.005   4.441
   11        1.499   2.936   0.005   4.441
   12        1.499   2.936   0.005   4.441
   13        1.548   0.372   9.847  11.767
   14        1.548   0.372   9.847  11.767
   15        1.548   0.372   9.847  11.767
   16        1.548   0.372   9.847  11.767
   17        2.291   4.729   0.019   7.038
   18        2.291   4.729   0.019   7.038
   19        2.291   4.729   0.019   7.038
   20        2.291   4.729   0.019   7.038
--------------------------------------------------
tot         33.342  55.666  39.521 128.529
 
    CHARGE:  cpu time    0.0590: real time    0.1577
    FORLOC:  cpu time    0.0090: real time    0.0123
    FORHF :  cpu time  391.5475: real time  392.7251
    FORNL :  cpu time    1.1978: real time    1.3044
    FORCOR:  cpu time    0.3829: real time    0.4033
    FORHAR:  cpu time    0.0240: real time    0.0422
    OFIELD:  cpu time    0.0000: real time    0.0428

 VOLUME and BASIS-vectors are now :
 -----------------------------------------------------------------------------
  energy-cutoff  :      450.00
  volume of cell :      958.84
      direct lattice vectors                 reciprocal lattice vectors
     8.675100327  0.000000000  0.000000000     0.115272442  0.000000000  0.000000000
     0.000000000  8.824000359  0.000000000     0.000000000  0.113327285  0.000000000
     0.000000000  0.000000000 12.525799751     0.000000000  0.000000000  0.079835222

  length of vectors
     8.675100327  8.824000359 12.525799751     0.115272442  0.113327285  0.079835222


 FORCES acting on ions
    electron-ion (+dipol)            ewald-force                    non-local-force                 convergence-correction
 -----------------------------------------------------------------------------------------------
   0.225E+02 -.179E+02 -.157E+02   -.244E+02 0.195E+02 0.175E+02   0.117E+01 -.104E+01 -.105E+01   0.422E+00 -.361E+00 -.473E+00
   -.225E+02 0.179E+02 0.157E+02   0.244E+02 -.195E+02 -.175E+02   -.117E+01 0.104E+01 0.105E+01   -.422E+00 0.361E+00 0.473E+00
   0.225E+02 0.179E+02 0.157E+02   -.244E+02 -.195E+02 -.175E+02   0.117E+01 0.104E+01 0.105E+01   0.422E+00 0.361E+00 0.473E+00
   -.225E+02 -.179E+02 -.157E+02   0.244E+02 0.195E+02 0.175E+02   -.117E+01 -.104E+01 -.105E+01   -.422E+00 -.361E+00 -.473E+00
   -.225E+02 0.179E+02 -.157E+02   0.244E+02 -.195E+02 0.175E+02   -.117E+01 0.104E+01 -.105E+01   -.422E+00 0.361E+00 -.473E+00
   0.225E+02 -.179E+02 0.157E+02   -.244E+02 0.195E+02 -.175E+02   0.117E+01 -.104E+01 0.105E+01   0.422E+00 -.361E+00 0.473E+00
   -.225E+02 -.179E+02 0.157E+02   0.244E+02 0.195E+02 -.175E+02   -.117E+01 -.104E+01 0.105E+01   -.422E+00 -.361E+00 0.473E+00
   0.225E+02 0.179E+02 -.157E+02   -.244E+02 -.195E+02 0.175E+02   0.117E+01 0.104E+01 -.105E+01   0.422E+00 0.361E+00 -.473E+00
   0.331E+02 -.123E+02 -.142E-04   -.354E+02 0.124E+02 -.595E-04   0.151E+01 -.194E+00 0.000E+00   0.465E+00 0.517E-01 0.740E-04
   -.331E+02 0.123E+02 0.864E-04   0.354E+02 -.124E+02 0.101E-04   -.151E+01 0.194E+00 0.000E+00   -.465E+00 -.517E-01 -.732E-04
   0.331E+02 0.123E+02 0.717E-04   -.354E+02 -.124E+02 0.101E-04   0.151E+01 0.194E+00 0.000E+00   0.465E+00 -.517E-01 -.757E-04
   -.331E+02 -.123E+02 0.459E-05   0.354E+02 0.124E+02 -.595E-04   -.151E+01 -.194E+00 0.000E+00   -.465E+00 0.517E-01 0.734E-04
   -.231E-04 0.428E-04 -.986E-04   -.946E-05 -.823E-04 0.310E-04   0.000E+00 0.000E+00 0.000E+00   0.117E-04 0.289E-04 0.460E-04
   0.593E-04 0.728E-04 -.637E-04   -.780E-04 -.228E-04 0.438E-04   0.000E+00 0.000E+00 0.000E+00   0.742E-05 -.360E-04 0.196E-04
   -.203E-04 0.107E-03 0.275E-04   -.251E-06 -.790E-04 0.141E-04   0.000E+00 0.000E+00 0.000E+00   0.795E-05 -.776E-05 -.415E-04
   0.896E-05 0.238E-04 0.461E-04   -.872E-04 -.195E-04 0.123E-05   0.000E+00 0.000E+00 0.000E+00   0.535E-04 -.270E-05 -.339E-04
   -.933E+01 -.265E+02 0.936E-04   0.945E+01 0.266E+02 0.141E-04   -.967E-01 0.438E-01 -.529E-22   -.429E-01 -.113E+00 -.108E-03
   0.933E+01 0.265E+02 -.367E-04   -.945E+01 -.266E+02 -.367E-04   0.967E-01 -.438E-01 0.000E+00   0.429E-01 0.113E+00 0.864E-04
   -.933E+01 0.265E+02 -.258E-04   0.945E+01 -.266E+02 -.367E-04   -.967E-01 -.438E-01 0.000E+00   -.429E-01 0.113E+00 0.738E-04
   0.933E+01 -.265E+02 0.767E-04   -.945E+01 0.266E+02 0.141E-04   0.967E-01 0.438E-01 0.000E+00   0.429E-01 -.113E+00 -.914E-04
 -----------------------------------------------------------------------------------------------
   -.241E-03 0.157E-03 0.142E-03   0.178E-14 0.284E-13 -.185E-13   0.680E-15 0.250E-15 -.529E-22   0.100E-03 -.399E-04 -.622E-04
 
 
 POSITION                                       TOTAL-FORCE (eV/Angst)
 -----------------------------------------------------------------------------------
      1.66797      2.69903      6.76746        -0.184569      0.140785      0.242916
      7.00713      6.12497      5.75834         0.184569     -0.140785     -0.242916
      6.00552      1.71297      5.75834        -0.184569     -0.140785     -0.242916
      2.66958      7.11103      6.76746         0.184569      0.140785      0.242916
      7.00713      6.12497      0.50456         0.184569     -0.140785      0.242916
      1.66797      2.69903     12.02124        -0.184569      0.140785     -0.242916
      2.66958      7.11103     12.02124         0.184569      0.140785     -0.242916
      6.00552      1.71297      0.50456        -0.184569     -0.140785      0.242916
      7.96010      0.00066      9.39435        -0.222496     -0.052833     -0.000000
      0.71500      8.82334      3.13145         0.222496      0.052833     -0.000000
      3.62255      4.41134      3.13145        -0.222496      0.052833     -0.000000
      5.05255      4.41266      9.39435         0.222496     -0.052833     -0.000000
      0.00000      0.00000      6.26290        -0.000000      0.000000     -0.000000
      4.33755      4.41200      6.26290        -0.000000      0.000000     -0.000000
      0.00000      0.00000      0.00000        -0.000000      0.000000     -0.000000
      4.33755      4.41200      0.00000        -0.000000      0.000000     -0.000000
      8.48474      3.74480      3.13145        -0.017987     -0.042055     -0.000000
      0.19036      5.07920      9.39435         0.017987      0.042055     -0.000000
      4.14719      0.66720      9.39435        -0.017987      0.042055     -0.000000
      4.52791      8.15680      3.13145         0.017987     -0.042055      0.000000
 -----------------------------------------------------------------------------------
    total drift:                               -0.000140      0.000117      0.000080


--------------------------------------------------------------------------------------------------------



  FREE ENERGIE OF THE ION-ELECTRON SYSTEM (eV)
  ---------------------------------------------------
  free  energy   TOTEN  =       -65.22117309 eV

  energy  without entropy=      -65.22117309  energy(sigma->0) =      -65.22117309
 


--------------------------------------------------------------------------------------------------------


    POTLOK:  cpu time    0.4019: real time    0.6300


--------------------------------------------------------------------------------------------------------


     LOOP+:  cpu time12212.4264: real time12248.4783
    4ORBIT:  cpu time    0.0000: real time    0.0000
 


 total charge     
 
# of ion       s       p       d       tot
------------------------------------------
    1        1.498   2.940   0.005   4.443
    2        1.498   2.940   0.005   4.443
    3        1.498   2.940   0.005   4.443
    4        1.498   2.940   0.005   4.443
    5        1.498   2.940   0.005   4.443
    6        1.498   2.940   0.005   4.443
    7        1.498   2.940   0.005   4.443
    8        1.498   2.940   0.005   4.443
    9        1.499   2.936   0.005   4.441
   10        1.499   2.936   0.005   4.441
   11        1.499   2.936   0.005   4.441
   12        1.499   2.936   0.005   4.441
   13        1.548   0.372   9.847  11.767
   14        1.548   0.372   9.847  11.767
   15        1.548   0.372   9.847  11.767
   16        1.548   0.372   9.847  11.767
   17        2.291   4.729   0.019   7.038
   18        2.291   4.729   0.019   7.038
   19        2.291   4.729   0.019   7.038
   20        2.291   4.729   0.019   7.038
--------------------------------------------------
tot         33.342  55.666  39.521 128.529
 

 total amount of memory used by VASP MPI-rank0   104021. kBytes
=======================================================================

   base      :      30000. kBytes
   nonlr-proj:      18254. kBytes
   fftplans  :       1768. kBytes
   grid      :       7357. kBytes
   one-center:        311. kBytes
   HF        :        194. kBytes
   wavefun   :      46137. kBytes
 
  
  
 General timing and accounting informations for this job:
 ========================================================
  
                  Total CPU time used (sec):    12302.496
                            User time (sec):    12262.616
                          System time (sec):       39.880
                         Elapsed time (sec):    12344.683
  
                   Maximum memory used (kb):     1011264.
                   Average memory used (kb):           0.
  
                          Minor page faults:      5465070
                          Major page faults:          314
                 Voluntary context switches:        10071
